date Fri 13 Jan 2023 16:28:04 GMT
hostname MacBook-Pro-8.homenet.telecomitalia.it
system Darwin MacBook-Pro-8.homenet.telecomitalia.it 21.6.0 Darwin Kernel Version 21.6.0: Mon Aug 22 20:20:05 PDT 2022; root:xnu-8020.140.49~2/RELEASE_ARM64_T8101 arm64
user brunocamino
output data in /Users/brunocamino/Desktop/Imperial/cmsg_icl/solid-solutions/data/crystal/cao_concount.out
crystal executable in /Users/brunocamino/crystal
input data in /Users/brunocamino/Desktop/Imperial/cmsg_icl/solid-solutions/data/crystal/cao_concount.d12
temporary directory /Users/brunocamino/crystal/tmp
TEST11 - MGO BULK
CRYSTAL
0 0 0
225
4.83817213
2
20 0.    0.    0.
8 0.5   0.5   0.5
SCELCONF
3 0 0
0 3 0
0 0 3
CONFCOUNT
1
1
ONLYCOMP
1
24
END
END

         
 *******************************************************************************
 *                                                                             *
 *                               CRYSTAL17                                     *
 *                      public : 1.0.1 - Feb 1st, 2017                         *
 *                       HTTP://WWW.CRYSTAL.UNITO.IT                           *
 *                                                                             *
 *                              MAIN AUTHORS                                   *
 *                                                                             *
 *  R. DOVESI(1,11), V.R. SAUNDERS(2), C. ROETTI(1,11), R. ORLANDO(1,11),      *
 *  C.M. ZICOVICH-WILSON(1,3), F. PASCALE(4), B. CIVALLERI(1,11),              *
 *  K. DOLL(5), N.M. HARRISON(2,6), I.J. BUSH(7), Ph. D'ARCO(8),               *
 *  M. LLUNELL(9), M. CAUSA'(10), Y. NOEL(8), L. MASCHIO(1,11), A. ERBA(1,11)  *
 *  M. RE'RAT(14), S. CASASSA(1,11)                                            *
 *                                                                             *
 *        CONTRIBUTIONS TO THE CODE HAVE ALSO BEEN GIVEN BY                    *
 *                                                                             *
 *  M. FERRABONE(1,11), M. DE LA PIERRE(1,11), M. FERRERO(1,11),               *
 *  J. BAIMA(1,11), E. ALBANESE(1,11), M.F. PEINTINGER(12), R. BAST(13),       *
 *  B. KIRTMAN(15), V. LACIVITA(1,11), R. DEMICHELIS(1,16)                     *
 *  G. BRANDEBURG(17), S. SALUSTRO(1,11), G. SANSONE(1,11)                     *
 *  M.T. RUGGIERO(18)                                                          *
 *                                                                             *
 * (1) THEORETICAL CHEMISTRY GROUP - UNIVERSITA' DI TORINO - TORINO (ITALY)    *

 * (2) COMPUTATIONAL SCIENCE & ENGINEERING DEPARTMENT - STFC DARESBURY (UK)    *
 * (3) UNIVERSIDAD AUTONOMA DEL ESTADO DE MORELOS - CUERNAVACA (MEXICO)        *
 * (4) UNIVERSITE' DE LORRAINE - NANCY (FRANCE)                                *
 * (5) UNIVERSITAET STUTTGART- STUTTGART (GERMANY)                             *
 * (6) IMPERIAL COLLEGE - LONDON (UK)                                          *
 * (7) OXFORD E-RESEARCH CENTRE - OXFORD (UK)                                  *
 * (8) UPMC - SORBONNE UNIVERSITES - PARIS (FRANCE)                            *
 * (9) UNIVERSIDAD DE BARCELONA - BARCELONA (SPAIN)                            *
 *(10) UNIVERSITA' DI NAPOLI "FEDERICO II" - NAPOLI (ITALY)                    *
 *(11) NIS - NANOSTRUCTURED INTERFACES AND SURFACES - TORINO (ITALY)           *
 *(12) MPI FUER CHEMISCHE ENERGIEKONVERSION - MUELHEIM AN DER RUHR (GERMANY)   *
 *(13) UNIVERSITY OF TROMSO - TROMSO (NORWAY)                                  *
 *(14) UNIVERSITE' DE PAU ET DES PAYS DE L'ADOUR - PAU (FRANCE)                *
 *(15) UNIVERSITY OF CALIFORNIA SANTA BARBARA - SANTA BARBARA (USA)            *
 *(16) CURTIN UNIVERSITY - PERTH (AUSTRALIA)                                   *
 *(17) UNIVERSITY COLLEGE LONDON - LONDON (UK)                                 *
 *(18) CAMBRIDGE UNIVERSITY - CAMBRIDGE (UK)                                   *
 *                                                                             *
 *******************************************************************************
 EEEEEEEEEE STARTING  DATE 13 01 2023 TIME 16:28:04.0
 TEST11 - MGO BULK                                                               

 CRYSTAL CALCULATION
 (INPUT ACCORDING TO THE INTERNATIONAL TABLES FOR X-RAY CRYSTALLOGRAPHY)
 CRYSTAL FAMILY                       :  CUBIC       
 CRYSTAL CLASS  (GROTH - 1921)        :  CUBIC HEXAKISOCTAHEDRAL              

 SPACE GROUP (CENTROSYMMETRIC)        :  F M 3 M         

 LATTICE PARAMETERS  (ANGSTROMS AND DEGREES) - CONVENTIONAL CELL
        A           B           C        ALPHA        BETA       GAMMA
     4.83817     4.83817     4.83817    90.00000    90.00000    90.00000


 NUMBER OF IRREDUCIBLE ATOMS IN THE CONVENTIONAL CELL:    2

 INPUT COORDINATES

 ATOM AT. N.              COORDINATES
   1  20     0.000000000000E+00  0.000000000000E+00  0.000000000000E+00
   2   8     5.000000000000E-01  5.000000000000E-01  5.000000000000E-01

 *******************************************************************************

 << INFORMATION >>: FROM NOW ON, ALL COORDINATES REFER TO THE PRIMITIVE CELL

 *******************************************************************************

 LATTICE PARAMETERS  (ANGSTROMS AND DEGREES) - PRIMITIVE CELL
       A          B          C        ALPHA      BETA     GAMMA        VOLUME
    3.42110    3.42110    3.42110    60.00000  60.00000  60.00000     28.312874

 COORDINATES OF THE EQUIVALENT ATOMS (FRACTIONAL UNITS)

 N. ATOM EQUIV AT. N.          X                  Y                  Z

   1   1   1   20 CA    0.00000000000E+00  0.00000000000E+00  0.00000000000E+00

   2   2   1    8 O    -5.00000000000E-01 -5.00000000000E-01 -5.00000000000E-01

 NUMBER OF SYMMETRY OPERATORS         :   48
 *******************************************************************************
 * GEOMETRY EDITING - INPUT COORDINATES ARE GIVEN IN ANGSTROM         
 *******************************************************************************

 GEOMETRY NOW FULLY CONSISTENT WITH THE GROUP

 GCALCO - MAX INDICES DIRECT LATTICE VECTOR    14    14    14
 NO.OF VECTORS CREATED 6999 STARS  105 RMAX    36.20556 BOHR

 *******************************************************************************
 * SUPERCELL OPTION
 *******************************************************************************


        EXPANSION MATRIX OF PRIMITIVE CELL
 E1     3.000     0.000     0.000
 E2     0.000     3.000     0.000
 E3     0.000     0.000     3.000

 NUMBER OF ATOMS PER SUPERCELL    54

        DIRECT LATTICE VECTORS COMPONENTS (ANGSTROM)
 B1     0.000     7.257     7.257
 B2     7.257     0.000     7.257
 B3     7.257     7.257     0.000

 LATTICE PARAMETERS  (ANGSTROM AND DEGREES)
       A          B          C         ALPHA     BETA     GAMMA        VOLUME
   10.26331   10.26331   10.26331    60.00000  60.00000  60.00000    764.447596


 **** ATOMS BELONGING TO THE SUPERCELL
 LABEL AT.NO.      COORDINATES (ANGSTROM AND FRACTIONAL)
     1    20     0.0000     0.0000     0.0000     0.0000     0.0000     0.0000
     2    20     2.4191     2.4191     0.0000     0.0000     0.0000     0.3333
     3    20    -2.4191    -2.4191     0.0000     0.0000     0.0000    -0.3333
     4    20     2.4191     0.0000     2.4191     0.0000     0.3333     0.0000
     5    20     4.8382     2.4191     2.4191     0.0000     0.3333     0.3333
     6    20     0.0000    -2.4191     2.4191    -0.0000     0.3333    -0.3333
     7    20    -2.4191     0.0000    -2.4191     0.0000    -0.3333     0.0000
     8    20     0.0000     2.4191    -2.4191    -0.0000    -0.3333     0.3333
     9    20    -4.8382    -2.4191    -2.4191     0.0000    -0.3333    -0.3333
    10    20     0.0000     2.4191     2.4191     0.3333     0.0000     0.0000
    11    20     2.4191     4.8382     2.4191     0.3333     0.0000     0.3333
    12    20    -2.4191     0.0000     2.4191     0.3333    -0.0000    -0.3333
    13    20     2.4191     2.4191     4.8382     0.3333     0.3333     0.0000
    14    20     4.8382     4.8382     4.8382     0.3333     0.3333     0.3333
    15    20     0.0000     0.0000     4.8382     0.3333     0.3333    -0.3333
    16    20    -2.4191     2.4191     0.0000     0.3333    -0.3333    -0.0000
    17    20     0.0000     4.8382     0.0000     0.3333    -0.3333     0.3333
    18    20    -4.8382     0.0000     0.0000     0.3333    -0.3333    -0.3333
    19    20     0.0000    -2.4191    -2.4191    -0.3333     0.0000     0.0000
    20    20     2.4191     0.0000    -2.4191    -0.3333    -0.0000     0.3333
    21    20    -2.4191    -4.8382    -2.4191    -0.3333     0.0000    -0.3333
    22    20     2.4191    -2.4191     0.0000    -0.3333     0.3333    -0.0000
    23    20     4.8382     0.0000     0.0000    -0.3333     0.3333     0.3333
    24    20     0.0000    -4.8382     0.0000    -0.3333     0.3333    -0.3333
    25    20    -2.4191    -2.4191    -4.8382    -0.3333    -0.3333     0.0000
    26    20     0.0000     0.0000    -4.8382    -0.3333    -0.3333     0.3333
    27    20    -4.8382    -4.8382    -4.8382    -0.3333    -0.3333    -0.3333
    28     8     2.4191     2.4191     2.4191     0.1667     0.1667     0.1667
    29     8    -2.4191    -2.4191     2.4191     0.1667     0.1667    -0.5000
    30     8     0.0000     0.0000     2.4191     0.1667     0.1667    -0.1667
    31     8    -2.4191     2.4191    -2.4191     0.1667    -0.5000     0.1667
    32     8    -7.2573    -2.4191    -2.4191     0.1667    -0.5000    -0.5000
    33     8    -4.8382     0.0000    -2.4191     0.1667    -0.5000    -0.1667
    34     8     0.0000     2.4191     0.0000     0.1667    -0.1667     0.1667
    35     8     2.4191     4.8382     0.0000     0.1667    -0.1667     0.5000
    36     8    -2.4191     0.0000     0.0000     0.1667    -0.1667    -0.1667
    37     8     2.4191    -2.4191    -2.4191    -0.5000     0.1667     0.1667
    38     8    -2.4191    -7.2573    -2.4191    -0.5000     0.1667    -0.5000
    39     8     0.0000    -4.8382    -2.4191    -0.5000     0.1667    -0.1667
    40     8    -2.4191    -2.4191    -7.2573    -0.5000    -0.5000     0.1667
    41     8    -7.2573    -7.2573    -7.2573    -0.5000    -0.5000    -0.5000
    42     8    -4.8382    -4.8382    -7.2573    -0.5000    -0.5000    -0.1667
    43     8     0.0000    -2.4191    -4.8382    -0.5000    -0.1667     0.1667
    44     8    -4.8382    -7.2573    -4.8382    -0.5000    -0.1667    -0.5000
    45     8    -2.4191    -4.8382    -4.8382    -0.5000    -0.1667    -0.1667
    46     8     2.4191     0.0000     0.0000    -0.1667     0.1667     0.1667
    47     8     4.8382     2.4191     0.0000    -0.1667     0.1667     0.5000
    48     8     0.0000    -2.4191     0.0000    -0.1667     0.1667    -0.1667
    49     8    -2.4191     0.0000    -4.8382    -0.1667    -0.5000     0.1667
    50     8    -7.2573    -4.8382    -4.8382    -0.1667    -0.5000    -0.5000
    51     8    -4.8382    -2.4191    -4.8382    -0.1667    -0.5000    -0.1667
    52     8     0.0000     0.0000    -2.4191    -0.1667    -0.1667     0.1667
    53     8    -4.8382    -4.8382    -2.4191    -0.1667    -0.1667    -0.5000
    54     8    -2.4191    -2.4191    -2.4191    -0.1667    -0.1667    -0.1667

 **************************** SUPERCELL GENERATED ****************************

 CONSTRUCTION OF SUPERCELL PRODUCT GROUP


     SUPERCELL MATRIX

  3.00000 0.00000 0.00000
  0.00000 3.00000 0.00000
  0.00000 0.00000 3.00000


     INVERSE SUPERCELL MATRIX

  0.33333 0.00000 0.00000
  0.00000 0.33333 0.00000
  0.00000 0.00000 0.33333


 LABEL AT.NO.      COORDINATES (ANGSTROM)
     1    20     0.0000     0.0000     0.0000
     2    20     2.4191     2.4191     0.0000
     3    20    -2.4191    -2.4191     0.0000
     4    20     2.4191     0.0000     2.4191
     5    20     4.8382     2.4191     2.4191
     6    20     0.0000    -2.4191     2.4191
     7    20    -2.4191     0.0000    -2.4191
     8    20     0.0000     2.4191    -2.4191
     9    20    -4.8382    -2.4191    -2.4191
    10    20     0.0000     2.4191     2.4191
    11    20     2.4191     4.8382     2.4191
    12    20    -2.4191     0.0000     2.4191
    13    20     2.4191     2.4191     4.8382
    14    20     4.8382     4.8382     4.8382
    15    20     0.0000     0.0000     4.8382
    16    20    -2.4191     2.4191     0.0000
    17    20     0.0000     4.8382     0.0000
    18    20    -4.8382     0.0000     0.0000
    19    20     0.0000    -2.4191    -2.4191
    20    20     2.4191     0.0000    -2.4191
    21    20    -2.4191    -4.8382    -2.4191
    22    20     2.4191    -2.4191     0.0000
    23    20     4.8382     0.0000     0.0000
    24    20     0.0000    -4.8382     0.0000
    25    20    -2.4191    -2.4191    -4.8382
    26    20     0.0000     0.0000    -4.8382
    27    20    -4.8382    -4.8382    -4.8382
    28     8     2.4191     2.4191     2.4191
    29     8    -2.4191    -2.4191     2.4191
    30     8     0.0000     0.0000     2.4191
    31     8    -2.4191     2.4191    -2.4191
    32     8    -7.2573    -2.4191    -2.4191
    33     8    -4.8382     0.0000    -2.4191
    34     8     0.0000     2.4191     0.0000
    35     8     2.4191     4.8382     0.0000
    36     8    -2.4191     0.0000     0.0000
    37     8     2.4191    -2.4191    -2.4191
    38     8    -2.4191    -7.2573    -2.4191
    39     8     0.0000    -4.8382    -2.4191
    40     8    -2.4191    -2.4191    -7.2573
    41     8    -7.2573    -7.2573    -7.2573
    42     8    -4.8382    -4.8382    -7.2573
    43     8     0.0000    -2.4191    -4.8382
    44     8    -4.8382    -7.2573    -4.8382
    45     8    -2.4191    -4.8382    -4.8382
    46     8     2.4191     0.0000     0.0000
    47     8     4.8382     2.4191     0.0000
    48     8     0.0000    -2.4191     0.0000
    49     8    -2.4191     0.0000    -4.8382
    50     8    -7.2573    -4.8382    -4.8382
    51     8    -4.8382    -2.4191    -4.8382
    52     8     0.0000     0.0000    -2.4191
    53     8    -4.8382    -4.8382    -2.4191
    54     8    -2.4191    -2.4191    -2.4191

 ***** 1296 SYMMOPS - TRANSLATORS IN ANGSTROM
 ***** MATRICES AND TRANSLATORS IN THE CARTESIAN REFERENCE FRAME

 ORDER   : ORDER OF THE OPERATOR

 TRANSLA : REAL TRANSLATION (WITHOUT ORIGIN SHIFT) IN CARTESIAN COORDINATES

 uvw/hkl : ORIENTATION OF THE OPERATOR IN CARTESIAN COORDINATES

 LOCATED : ORIGIN OF THE OPERATOR IN CARTESIAN COORDINATES

   NO.   1 INVERSE   1    ORDER   1        NO.   2 INVERSE   2    ORDER   2
    1.000   0.000   0.000     0.000        -1.000   0.000   0.000     0.000
    0.000   1.000   0.000     0.000         0.000  -1.000   0.000     0.000
    0.000   0.000   1.000     0.000         0.000   0.000   1.000     0.000
             OPERATION E(   1)                       OPERATION C(   2)
 DETERMINANT 1.; ROTATION(DEG)   0.      DETERMINANT 1.; ROTATION(DEG) 180.
 TRANSLA (  0.000    0.000    0.000)     TRANSLA (  0.000    0.000    0.000)
 uvw/hkl (  0.000    0.000    0.000)     uvw/hkl (  0.000    0.000    4.000)
 LOCATED (  0.000    0.000    0.000)     LOCATED (  0.000    0.000    0.000)

   NO.   3 INVERSE   3    ORDER   2        NO.   4 INVERSE   4    ORDER   2
    1.000   0.000   0.000     0.000        -1.000   0.000   0.000     0.000
    0.000  -1.000   0.000     0.000         0.000   1.000   0.000     0.000
    0.000   0.000  -1.000     0.000         0.000   0.000  -1.000     0.000
             OPERATION C(   2)                       OPERATION C(   2)
 DETERMINANT 1.; ROTATION(DEG) 180.      DETERMINANT 1.; ROTATION(DEG) 180.
 TRANSLA (  0.000    0.000    0.000)     TRANSLA (  0.000    0.000    0.000)
 uvw/hkl (  4.000    0.000    0.000)     uvw/hkl (  0.000   -4.000    0.000)
 LOCATED (  0.000    0.000    0.000)     LOCATED (  0.000    0.000    0.000)

   NO.   5 INVERSE   6    ORDER   3        NO.   6 INVERSE   5    ORDER   3
    0.000   0.000   1.000     0.000         0.000   1.000   0.000     0.000
    1.000   0.000   0.000     0.000         0.000   0.000   1.000     0.000
    0.000   1.000   0.000     0.000         1.000   0.000   0.000     0.000
             OPERATION C(   3)                       OPERATION C(   3)
 DETERMINANT 1.; ROTATION(DEG) 120.      DETERMINANT 1.; ROTATION(DEG) 120.
 TRANSLA (  0.000    0.000    0.000)     TRANSLA (  0.000    0.000    0.000)
 uvw/hkl (  1.000    1.000    1.000)     uvw/hkl (  1.000    1.000    1.000)
 LOCATED (  0.000    0.000    0.000)     LOCATED (  0.000    0.000    0.000)

   NO.   7 INVERSE   8    ORDER   3        NO.   8 INVERSE   7    ORDER   3
    0.000   0.000  -1.000     0.000         0.000  -1.000   0.000     0.000
   -1.000   0.000   0.000     0.000         0.000   0.000   1.000     0.000
    0.000   1.000   0.000     0.000        -1.000   0.000   0.000     0.000
             OPERATION C(   3)                       OPERATION C(   3)
 DETERMINANT 1.; ROTATION(DEG) 120.      DETERMINANT 1.; ROTATION(DEG) 120.
 TRANSLA (  0.000    0.000    0.000)     TRANSLA (  0.000    0.000    0.000)
 uvw/hkl ( -1.000    1.000    1.000)     uvw/hkl ( -1.000    1.000    1.000)
 LOCATED (  0.000    0.000    0.000)     LOCATED (  0.000    0.000    0.000)

   NO.   9 INVERSE  10    ORDER   3        NO.  10 INVERSE   9    ORDER   3
    0.000   0.000   1.000     0.000         0.000  -1.000   0.000     0.000
   -1.000   0.000   0.000     0.000         0.000   0.000  -1.000     0.000
    0.000  -1.000   0.000     0.000         1.000   0.000   0.000     0.000
             OPERATION C(   3)                       OPERATION C(   3)
 DETERMINANT 1.; ROTATION(DEG) 120.      DETERMINANT 1.; ROTATION(DEG) 120.
 TRANSLA (  0.000    0.000    0.000)     TRANSLA (  0.000    0.000    0.000)
 uvw/hkl (  1.000   -1.000    1.000)     uvw/hkl (  1.000   -1.000    1.000)
 LOCATED (  0.000    0.000    0.000)     LOCATED (  0.000    0.000    0.000)

   NO.  11 INVERSE  12    ORDER   3        NO.  12 INVERSE  11    ORDER   3
    0.000   0.000  -1.000     0.000         0.000   1.000   0.000     0.000
    1.000   0.000   0.000     0.000         0.000   0.000  -1.000     0.000
    0.000  -1.000   0.000     0.000        -1.000   0.000   0.000     0.000
             OPERATION C(   3)                       OPERATION C(   3)
 DETERMINANT 1.; ROTATION(DEG) 120.      DETERMINANT 1.; ROTATION(DEG) 120.
 TRANSLA (  0.000    0.000    0.000)     TRANSLA (  0.000    0.000    0.000)
 uvw/hkl ( -1.000   -1.000    1.000)     uvw/hkl ( -1.000   -1.000    1.000)
 LOCATED (  0.000    0.000    0.000)     LOCATED (  0.000    0.000    0.000)

   NO.  13 INVERSE  13    ORDER   2        NO.  14 INVERSE  14    ORDER   2
    0.000  -1.000   0.000     0.000         0.000   1.000   0.000     0.000
   -1.000   0.000   0.000     0.000         1.000   0.000   0.000     0.000
    0.000   0.000  -1.000     0.000         0.000   0.000  -1.000     0.000
             OPERATION C(   2)                       OPERATION C(   2)
 DETERMINANT 1.; ROTATION(DEG) 180.      DETERMINANT 1.; ROTATION(DEG) 180.
 TRANSLA (  0.000    0.000    0.000)     TRANSLA (  0.000    0.000    0.000)
 uvw/hkl (  2.000   -2.000    0.000)     uvw/hkl ( -2.000   -2.000    0.000)
 LOCATED (  0.000    0.000    0.000)     LOCATED (  0.000    0.000    0.000)

   NO.  15 INVERSE  16    ORDER   4        NO.  16 INVERSE  15    ORDER   4
    0.000   1.000   0.000     0.000         0.000  -1.000   0.000     0.000
   -1.000   0.000   0.000     0.000         1.000   0.000   0.000     0.000
    0.000   0.000   1.000     0.000         0.000   0.000   1.000     0.000
             OPERATION C(   4)                       OPERATION C(   4)
 DETERMINANT 1.; ROTATION(DEG)  90.      DETERMINANT 1.; ROTATION(DEG)  90.
 TRANSLA (  0.000    0.000    0.000)     TRANSLA (  0.000    0.000    0.000)
 uvw/hkl (  0.000    0.000    2.000)     uvw/hkl (  0.000    0.000    2.000)
 LOCATED (  0.000    0.000    0.000)     LOCATED (  0.000    0.000    0.000)

   NO.  17 INVERSE  17    ORDER   2        NO.  18 INVERSE  18    ORDER   2
   -1.000   0.000   0.000     0.000         0.000   0.000  -1.000     0.000
    0.000   0.000  -1.000     0.000         0.000  -1.000   0.000     0.000
    0.000  -1.000   0.000     0.000        -1.000   0.000   0.000     0.000
             OPERATION C(   2)                       OPERATION C(   2)
 DETERMINANT 1.; ROTATION(DEG) 180.      DETERMINANT 1.; ROTATION(DEG) 180.
 TRANSLA (  0.000    0.000    0.000)     TRANSLA (  0.000    0.000    0.000)
 uvw/hkl (  0.000   -2.000    2.000)     uvw/hkl ( -2.000    0.000    2.000)
 LOCATED (  0.000    0.000    0.000)     LOCATED (  0.000    0.000    0.000)

   NO.  19 INVERSE  21    ORDER   4        NO.  20 INVERSE  22    ORDER   4
    1.000   0.000   0.000     0.000         0.000   0.000  -1.000     0.000
    0.000   0.000   1.000     0.000         0.000   1.000   0.000     0.000
    0.000  -1.000   0.000     0.000         1.000   0.000   0.000     0.000
             OPERATION C(   4)                       OPERATION C(   4)
 DETERMINANT 1.; ROTATION(DEG)  90.      DETERMINANT 1.; ROTATION(DEG)  90.
 TRANSLA (  0.000    0.000    0.000)     TRANSLA (  0.000    0.000    0.000)
 uvw/hkl (  2.000    0.000    0.000)     uvw/hkl (  0.000   -2.000    0.000)
 LOCATED (  0.000    0.000    0.000)     LOCATED (  0.000    0.000    0.000)

   NO.  21 INVERSE  19    ORDER   4        NO.  22 INVERSE  20    ORDER   4
    1.000   0.000   0.000     0.000         0.000   0.000   1.000     0.000
    0.000   0.000  -1.000     0.000         0.000   1.000   0.000     0.000
    0.000   1.000   0.000     0.000        -1.000   0.000   0.000     0.000
             OPERATION C(   4)                       OPERATION C(   4)
 DETERMINANT 1.; ROTATION(DEG)  90.      DETERMINANT 1.; ROTATION(DEG)  90.
 TRANSLA (  0.000    0.000    0.000)     TRANSLA (  0.000    0.000    0.000)
 uvw/hkl (  2.000    0.000    0.000)     uvw/hkl (  0.000   -2.000    0.000)
 LOCATED (  0.000    0.000    0.000)     LOCATED (  0.000    0.000    0.000)

   NO.  23 INVERSE  23    ORDER   2        NO.  24 INVERSE  24    ORDER   2
   -1.000   0.000   0.000     0.000         0.000   0.000   1.000     0.000
    0.000   0.000   1.000     0.000         0.000  -1.000   0.000     0.000
    0.000   1.000   0.000     0.000         1.000   0.000   0.000     0.000
             OPERATION C(   2)                       OPERATION C(   2)
 DETERMINANT 1.; ROTATION(DEG) 180.      DETERMINANT 1.; ROTATION(DEG) 180.
 TRANSLA (  0.000    0.000    0.000)     TRANSLA (  0.000    0.000    0.000)
 uvw/hkl (  0.000    2.000    2.000)     uvw/hkl (  2.000    0.000    2.000)
 LOCATED (  0.000    0.000    0.000)     LOCATED (  0.000    0.000    0.000)

   NO.  25 INVERSE  25    ORDER   2        NO.  26 INVERSE  26    ORDER   2
   -1.000   0.000   0.000     0.000         1.000   0.000   0.000     0.000
    0.000  -1.000   0.000     0.000         0.000   1.000   0.000     0.000
    0.000   0.000  -1.000     0.000         0.000   0.000  -1.000     0.000
             OPERATION I(   2)                       OPERATION M(   2)
 DETERMINANT-1.; ROTATION(DEG) 180.      DETERMINANT-1.; ROTATION(DEG)   0.
 TRANSLA (  0.000    0.000    0.000)     TRANSLA (  0.000    0.000    0.000)
 uvw/hkl (  0.000    0.000    0.000)     uvw/hkl (  0.000    0.000   -2.000)
 LOCATED (  0.000    0.000    0.000)     LOCATED (  0.000    0.000    0.000)

   NO.  27 INVERSE  27    ORDER   2        NO.  28 INVERSE  28    ORDER   2
   -1.000   0.000   0.000     0.000         1.000   0.000   0.000     0.000
    0.000   1.000   0.000     0.000         0.000  -1.000   0.000     0.000
    0.000   0.000   1.000     0.000         0.000   0.000   1.000     0.000
             OPERATION M(   2)                       OPERATION M(   2)
 DETERMINANT-1.; ROTATION(DEG)   0.      DETERMINANT-1.; ROTATION(DEG)   0.
 TRANSLA (  0.000    0.000    0.000)     TRANSLA (  0.000    0.000    0.000)
 uvw/hkl (  2.000    0.000    0.000)     uvw/hkl (  0.000   -2.000    0.000)
 LOCATED (  0.000    0.000    0.000)     LOCATED (  0.000    0.000    0.000)

   NO.  29 INVERSE  30    ORDER   6        NO.  30 INVERSE  29    ORDER   6
    0.000   0.000  -1.000     0.000         0.000  -1.000   0.000     0.000
   -1.000   0.000   0.000     0.000         0.000   0.000  -1.000     0.000
    0.000  -1.000   0.000     0.000        -1.000   0.000   0.000     0.000
             OPERATION S(   6)                       OPERATION S(   6)
 DETERMINANT-1.; ROTATION(DEG)  60.      DETERMINANT-1.; ROTATION(DEG)  60.
 TRANSLA (  0.000    0.000    0.000)     TRANSLA (  0.000    0.000    0.000)
 uvw/hkl ( -1.000    1.000    1.000)     uvw/hkl (  1.000   -1.000    1.000)
 LOCATED (  0.000    0.000    0.000)     LOCATED (  0.000    0.000    0.000)

   NO.  31 INVERSE  32    ORDER   6        NO.  32 INVERSE  31    ORDER   6
    0.000   0.000   1.000     0.000         0.000   1.000   0.000     0.000
    1.000   0.000   0.000     0.000         0.000   0.000  -1.000     0.000
    0.000  -1.000   0.000     0.000         1.000   0.000   0.000     0.000
             OPERATION S(   6)                       OPERATION S(   6)
 DETERMINANT-1.; ROTATION(DEG)  60.      DETERMINANT-1.; ROTATION(DEG)  60.
 TRANSLA (  0.000    0.000    0.000)     TRANSLA (  0.000    0.000    0.000)
 uvw/hkl (  1.000    1.000    1.000)     uvw/hkl ( -1.000   -1.000    1.000)
 LOCATED (  0.000    0.000    0.000)     LOCATED (  0.000    0.000    0.000)

   NO.  33 INVERSE  34    ORDER   6        NO.  34 INVERSE  33    ORDER   6
    0.000   0.000  -1.000     0.000         0.000   1.000   0.000     0.000
    1.000   0.000   0.000     0.000         0.000   0.000   1.000     0.000
    0.000   1.000   0.000     0.000        -1.000   0.000   0.000     0.000
             OPERATION S(   6)                       OPERATION S(   6)
 DETERMINANT-1.; ROTATION(DEG)  60.      DETERMINANT-1.; ROTATION(DEG)  60.
 TRANSLA (  0.000    0.000    0.000)     TRANSLA (  0.000    0.000    0.000)
 uvw/hkl ( -1.000   -1.000    1.000)     uvw/hkl (  1.000    1.000    1.000)
 LOCATED (  0.000    0.000    0.000)     LOCATED (  0.000    0.000    0.000)

   NO.  35 INVERSE  36    ORDER   6        NO.  36 INVERSE  35    ORDER   6
    0.000   0.000   1.000     0.000         0.000  -1.000   0.000     0.000
   -1.000   0.000   0.000     0.000         0.000   0.000   1.000     0.000
    0.000   1.000   0.000     0.000         1.000   0.000   0.000     0.000
             OPERATION S(   6)                       OPERATION S(   6)
 DETERMINANT-1.; ROTATION(DEG)  60.      DETERMINANT-1.; ROTATION(DEG)  60.
 TRANSLA (  0.000    0.000    0.000)     TRANSLA (  0.000    0.000    0.000)
 uvw/hkl (  1.000   -1.000    1.000)     uvw/hkl ( -1.000    1.000    1.000)
 LOCATED (  0.000    0.000    0.000)     LOCATED (  0.000    0.000    0.000)

   NO.  37 INVERSE  37    ORDER   2        NO.  38 INVERSE  38    ORDER   2
    0.000   1.000   0.000     0.000         0.000  -1.000   0.000     0.000
    1.000   0.000   0.000     0.000        -1.000   0.000   0.000     0.000
    0.000   0.000   1.000     0.000         0.000   0.000   1.000     0.000
             OPERATION M(   2)                       OPERATION M(   2)
 DETERMINANT-1.; ROTATION(DEG)   0.      DETERMINANT-1.; ROTATION(DEG)   0.
 TRANSLA (  0.000    0.000    0.000)     TRANSLA (  0.000    0.000    0.000)
 uvw/hkl (  1.000   -1.000    0.000)     uvw/hkl (  1.000    1.000    0.000)
 LOCATED (  0.000    0.000    0.000)     LOCATED (  0.000    0.000    0.000)

   NO.  39 INVERSE  40    ORDER   4        NO.  40 INVERSE  39    ORDER   4
    0.000  -1.000   0.000     0.000         0.000   1.000   0.000     0.000
    1.000   0.000   0.000     0.000        -1.000   0.000   0.000     0.000
    0.000   0.000  -1.000     0.000         0.000   0.000  -1.000     0.000
             OPERATION S(   4)                       OPERATION S(   4)
 DETERMINANT-1.; ROTATION(DEG)  90.      DETERMINANT-1.; ROTATION(DEG)  90.
 TRANSLA (  0.000    0.000    0.000)     TRANSLA (  0.000    0.000    0.000)
 uvw/hkl (  0.000    0.000    2.000)     uvw/hkl (  0.000    0.000    2.000)
 LOCATED (  0.000    0.000    0.000)     LOCATED (  0.000    0.000    0.000)

   NO.  41 INVERSE  41    ORDER   2        NO.  42 INVERSE  42    ORDER   2
    1.000   0.000   0.000     0.000         0.000   0.000   1.000     0.000
    0.000   0.000   1.000     0.000         0.000   1.000   0.000     0.000
    0.000   1.000   0.000     0.000         1.000   0.000   0.000     0.000
             OPERATION M(   2)                       OPERATION M(   2)
 DETERMINANT-1.; ROTATION(DEG)   0.      DETERMINANT-1.; ROTATION(DEG)   0.
 TRANSLA (  0.000    0.000    0.000)     TRANSLA (  0.000    0.000    0.000)
 uvw/hkl (  0.000   -1.000    1.000)     uvw/hkl (  1.000    0.000   -1.000)
 LOCATED (  0.000    0.000    0.000)     LOCATED (  0.000    0.000    0.000)

   NO.  43 INVERSE  45    ORDER   4        NO.  44 INVERSE  46    ORDER   4
   -1.000   0.000   0.000     0.000         0.000   0.000   1.000     0.000
    0.000   0.000  -1.000     0.000         0.000  -1.000   0.000     0.000
    0.000   1.000   0.000     0.000        -1.000   0.000   0.000     0.000
             OPERATION S(   4)                       OPERATION S(   4)
 DETERMINANT-1.; ROTATION(DEG)  90.      DETERMINANT-1.; ROTATION(DEG)  90.
 TRANSLA (  0.000    0.000    0.000)     TRANSLA (  0.000    0.000    0.000)
 uvw/hkl (  0.000   -2.000    2.000)     uvw/hkl (  2.000    0.000    2.000)
 LOCATED (  0.000    0.000    0.000)     LOCATED (  0.000    0.000    0.000)

   NO.  45 INVERSE  43    ORDER   4        NO.  46 INVERSE  44    ORDER   4
   -1.000   0.000   0.000     0.000         0.000   0.000  -1.000     0.000
    0.000   0.000   1.000     0.000         0.000  -1.000   0.000     0.000
    0.000  -1.000   0.000     0.000         1.000   0.000   0.000     0.000
             OPERATION S(   4)                       OPERATION S(   4)
 DETERMINANT-1.; ROTATION(DEG)  90.      DETERMINANT-1.; ROTATION(DEG)  90.
 TRANSLA (  0.000    0.000    0.000)     TRANSLA (  0.000    0.000    0.000)
 uvw/hkl (  0.000    2.000    2.000)     uvw/hkl ( -2.000    0.000    2.000)
 LOCATED (  0.000    0.000    0.000)     LOCATED (  0.000    0.000    0.000)

   NO.  47 INVERSE  47    ORDER   2        NO.  48 INVERSE  48    ORDER   2
    1.000   0.000   0.000     0.000         0.000   0.000  -1.000     0.000
    0.000   0.000  -1.000     0.000         0.000   1.000   0.000     0.000
    0.000  -1.000   0.000     0.000        -1.000   0.000   0.000     0.000
             OPERATION M(   2)                       OPERATION M(   2)
 DETERMINANT-1.; ROTATION(DEG)   0.      DETERMINANT-1.; ROTATION(DEG)   0.
 TRANSLA (  0.000    0.000    0.000)     TRANSLA (  0.000    0.000    0.000)
 uvw/hkl (  0.000   -1.000   -1.000)     uvw/hkl (  1.000    0.000    1.000)
 LOCATED (  0.000    0.000    0.000)     LOCATED (  0.000    0.000    0.000)

   NO.  49 INVERSE  97    ORDER   1        NO.  50 INVERSE  50    ORDER   2
    1.000   0.000   0.000     2.419        -1.000   0.000   0.000     2.419
    0.000   1.000   0.000     2.419         0.000  -1.000   0.000     2.419
    0.000   0.000   1.000     0.000         0.000   0.000   1.000     0.000
             OPERATION E(   1)                       OPERATION C(   2)
 DETERMINANT 1.; ROTATION(DEG)   0.      DETERMINANT 1.; ROTATION(DEG) 180.
 TRANSLA (  2.419    2.419    0.000)     TRANSLA (  0.000   -0.000    0.000)
 uvw/hkl (  0.000    0.000    0.000)     uvw/hkl (  0.000    0.000    4.000)
 LOCATED (  0.000    0.000    0.000)     LOCATED (  1.210    1.210    0.000)

   NO.  51 INVERSE 723    ORDER   2        NO.  52 INVERSE1012    ORDER   2
    1.000   0.000   0.000     2.419        -1.000   0.000   0.000     2.419
    0.000  -1.000   0.000     2.419         0.000   1.000   0.000     2.419
    0.000   0.000  -1.000     0.000         0.000   0.000  -1.000     0.000
             OPERATION C(   2)                       OPERATION C(   2)
 DETERMINANT 1.; ROTATION(DEG) 180.      DETERMINANT 1.; ROTATION(DEG) 180.
 TRANSLA (  2.419   -0.000    0.000)     TRANSLA (  0.000    2.419    0.000)
 uvw/hkl (  4.000    0.000    0.000)     uvw/hkl (  0.000   -4.000    0.000)
 LOCATED (  0.000    1.210    0.000)     LOCATED (  1.210    0.000    0.000)

   NO.  53 INVERSE 294    ORDER   3        NO.  54 INVERSE 869    ORDER   3
    0.000   0.000   1.000     2.419         0.000   1.000   0.000     2.419
    1.000   0.000   0.000     2.419         0.000   0.000   1.000     2.419
    0.000   1.000   0.000     0.000         1.000   0.000   0.000     0.000
             OPERATION C(   3)                       OPERATION C(   3)
 DETERMINANT 1.; ROTATION(DEG) 120.      DETERMINANT 1.; ROTATION(DEG) 120.
 TRANSLA (  1.613    1.613    1.613)     TRANSLA (  1.613    1.613    1.613)
 uvw/hkl (  1.000    1.000    1.000)     uvw/hkl (  1.000    1.000    1.000)
 LOCATED (  0.806    1.613    0.000)     LOCATED (  1.613    0.806    0.000)

   NO.  55 INVERSE 152    ORDER   3        NO.  56 INVERSE 343    ORDER   3
    0.000   0.000  -1.000     2.419         0.000  -1.000   0.000     2.419
   -1.000   0.000   0.000     2.419         0.000   0.000   1.000     2.419
    0.000   1.000   0.000     0.000        -1.000   0.000   0.000     0.000
             OPERATION C(   3)                       OPERATION C(   3)
 DETERMINANT 1.; ROTATION(DEG) 120.      DETERMINANT 1.; ROTATION(DEG) 120.
 TRANSLA ( -0.000    0.000    0.000)     TRANSLA ( -0.000   -0.000    0.000)
 uvw/hkl ( -1.000    1.000    1.000)     uvw/hkl ( -1.000    1.000    1.000)
 LOCATED (  2.419   -0.000    0.000)     LOCATED ( -0.000    2.419    0.000)

   NO.  57 INVERSE 922    ORDER   3        NO.  58 INVERSE 441    ORDER   3
    0.000   0.000   1.000     2.419         0.000  -1.000   0.000     2.419
   -1.000   0.000   0.000     2.419         0.000   0.000  -1.000     2.419
    0.000  -1.000   0.000     0.000         1.000   0.000   0.000     0.000
             OPERATION C(   3)                       OPERATION C(   3)
 DETERMINANT 1.; ROTATION(DEG) 120.      DETERMINANT 1.; ROTATION(DEG) 120.
 TRANSLA ( -0.000    0.000    0.000)     TRANSLA ( -0.000   -0.000   -0.000)
 uvw/hkl (  1.000   -1.000    1.000)     uvw/hkl (  1.000   -1.000    1.000)
 LOCATED (  2.419   -0.000    0.000)     LOCATED ( -0.000    2.419    0.000)

   NO.  59 INVERSE 540    ORDER   3        NO.  60 INVERSE 251    ORDER   3
    0.000   0.000  -1.000     2.419         0.000   1.000   0.000     2.419
    1.000   0.000   0.000     2.419         0.000   0.000  -1.000     2.419
    0.000  -1.000   0.000     0.000        -1.000   0.000   0.000     0.000
             OPERATION C(   3)                       OPERATION C(   3)
 DETERMINANT 1.; ROTATION(DEG) 120.      DETERMINANT 1.; ROTATION(DEG) 120.
 TRANSLA (  1.613    1.613   -1.613)     TRANSLA (  1.613    1.613   -1.613)
 uvw/hkl ( -1.000   -1.000    1.000)     uvw/hkl ( -1.000   -1.000    1.000)
 LOCATED (  0.806    1.613    0.000)     LOCATED (  1.613    0.806    0.000)

   NO.  61 INVERSE  61    ORDER   2        NO.  62 INVERSE 110    ORDER   2
    0.000  -1.000   0.000     2.419         0.000   1.000   0.000     2.419
   -1.000   0.000   0.000     2.419         1.000   0.000   0.000     2.419
    0.000   0.000  -1.000     0.000         0.000   0.000  -1.000     0.000
             OPERATION C(   2)                       OPERATION C(   2)
 DETERMINANT 1.; ROTATION(DEG) 180.      DETERMINANT 1.; ROTATION(DEG) 180.
 TRANSLA ( -0.000    0.000    0.000)     TRANSLA (  2.419    2.419    0.000)
 uvw/hkl (  2.000   -2.000    0.000)     uvw/hkl ( -2.000   -2.000    0.000)
 LOCATED (  2.419    0.000    0.000)     LOCATED ( -0.000    0.000    0.000)

   NO.  63 INVERSE1024    ORDER   4        NO.  64 INVERSE 735    ORDER   4
    0.000   1.000   0.000     2.419         0.000  -1.000   0.000     2.419
   -1.000   0.000   0.000     2.419         1.000   0.000   0.000     2.419
    0.000   0.000   1.000     0.000         0.000   0.000   1.000     0.000
             OPERATION C(   4)                       OPERATION C(   4)
 DETERMINANT 1.; ROTATION(DEG)  90.      DETERMINANT 1.; ROTATION(DEG)  90.
 TRANSLA ( -0.000    0.000    0.000)     TRANSLA (  0.000   -0.000    0.000)
 uvw/hkl (  0.000    0.000    2.000)     uvw/hkl (  0.000    0.000    2.000)
 LOCATED (  2.419    0.000    0.000)     LOCATED ( -0.000    2.419    0.000)

   NO.  65 INVERSE 161    ORDER   2        NO.  66 INVERSE 450    ORDER   2
   -1.000   0.000   0.000     2.419         0.000   0.000  -1.000     2.419
    0.000   0.000  -1.000     2.419         0.000  -1.000   0.000     2.419
    0.000  -1.000   0.000     0.000        -1.000   0.000   0.000     0.000
             OPERATION C(   2)                       OPERATION C(   2)
 DETERMINANT 1.; ROTATION(DEG) 180.      DETERMINANT 1.; ROTATION(DEG) 180.
 TRANSLA (  0.000    1.210   -1.210)     TRANSLA (  1.210   -0.000   -1.210)
 uvw/hkl (  0.000   -2.000    2.000)     uvw/hkl ( -2.000    0.000    2.000)
 LOCATED (  1.210    1.210    0.000)     LOCATED (  1.210    1.210    0.000)

   NO.  67 INVERSE 309    ORDER   4        NO.  68 INVERSE 262    ORDER   4
    1.000   0.000   0.000     2.419         0.000   0.000  -1.000     2.419
    0.000   0.000   1.000     2.419         0.000   1.000   0.000     2.419
    0.000  -1.000   0.000     0.000         1.000   0.000   0.000     0.000
             OPERATION C(   4)                       OPERATION C(   4)
 DETERMINANT 1.; ROTATION(DEG)  90.      DETERMINANT 1.; ROTATION(DEG)  90.
 TRANSLA (  2.419   -0.000    0.000)     TRANSLA ( -0.000    2.419   -0.000)
 uvw/hkl (  2.000    0.000    0.000)     uvw/hkl (  0.000   -2.000    0.000)
 LOCATED (  0.000    1.210   -1.210)     LOCATED (  1.210    0.000    1.210)

   NO.  69 INVERSE 547    ORDER   4        NO.  70 INVERSE 884    ORDER   4
    1.000   0.000   0.000     2.419         0.000   0.000   1.000     2.419
    0.000   0.000  -1.000     2.419         0.000   1.000   0.000     2.419
    0.000   1.000   0.000     0.000        -1.000   0.000   0.000     0.000
             OPERATION C(   4)                       OPERATION C(   4)
 DETERMINANT 1.; ROTATION(DEG)  90.      DETERMINANT 1.; ROTATION(DEG)  90.
 TRANSLA (  2.419   -0.000   -0.000)     TRANSLA ( -0.000    2.419    0.000)
 uvw/hkl (  2.000    0.000    0.000)     uvw/hkl (  0.000   -2.000    0.000)
 LOCATED (  0.000    1.210    1.210)     LOCATED (  1.210    0.000   -1.210)

   NO.  71 INVERSE 935    ORDER   2        NO.  72 INVERSE 360    ORDER   2
   -1.000   0.000   0.000     2.419         0.000   0.000   1.000     2.419
    0.000   0.000   1.000     2.419         0.000  -1.000   0.000     2.419
    0.000   1.000   0.000     0.000         1.000   0.000   0.000     0.000
             OPERATION C(   2)                       OPERATION C(   2)
 DETERMINANT 1.; ROTATION(DEG) 180.      DETERMINANT 1.; ROTATION(DEG) 180.
 TRANSLA (  0.000    1.210    1.210)     TRANSLA (  1.210   -0.000    1.210)
 uvw/hkl (  0.000    2.000    2.000)     uvw/hkl (  2.000    0.000    2.000)
 LOCATED (  1.210    1.210    0.000)     LOCATED (  1.210    1.210    0.000)

   NO.  73 INVERSE  73    ORDER   2        NO.  74 INVERSE 122    ORDER   2
   -1.000   0.000   0.000     2.419         1.000   0.000   0.000     2.419
    0.000  -1.000   0.000     2.419         0.000   1.000   0.000     2.419
    0.000   0.000  -1.000     0.000         0.000   0.000  -1.000     0.000
             OPERATION I(   2)                       OPERATION M(   2)
 DETERMINANT-1.; ROTATION(DEG) 180.      DETERMINANT-1.; ROTATION(DEG)   0.
 TRANSLA (  0.000   -0.000    0.000)     TRANSLA (  2.419    2.419    0.000)
 uvw/hkl (  0.000    0.000    0.000)     uvw/hkl (  0.000    0.000   -2.000)
 LOCATED (  1.210    1.210    0.000)     LOCATED (  0.000    0.000    0.000)

   NO.  75 INVERSE1035    ORDER   2        NO.  76 INVERSE 748    ORDER   2
   -1.000   0.000   0.000     2.419         1.000   0.000   0.000     2.419
    0.000   1.000   0.000     2.419         0.000  -1.000   0.000     2.419
    0.000   0.000   1.000     0.000         0.000   0.000   1.000     0.000
             OPERATION M(   2)                       OPERATION M(   2)
 DETERMINANT-1.; ROTATION(DEG)   0.      DETERMINANT-1.; ROTATION(DEG)   0.
 TRANSLA (  0.000    2.419    0.000)     TRANSLA (  2.419   -0.000    0.000)
 uvw/hkl (  2.000    0.000    0.000)     uvw/hkl (  0.000   -2.000    0.000)
 LOCATED (  1.210    0.000    0.000)     LOCATED (  0.000    1.210    0.000)

   NO.  77 INVERSE 174    ORDER   6        NO.  78 INVERSE 461    ORDER   6
    0.000   0.000  -1.000     2.419         0.000  -1.000   0.000     2.419
   -1.000   0.000   0.000     2.419         0.000   0.000  -1.000     2.419
    0.000  -1.000   0.000     0.000        -1.000   0.000   0.000     0.000
             OPERATION S(   6)                       OPERATION S(   6)
 DETERMINANT-1.; ROTATION(DEG)  60.      DETERMINANT-1.; ROTATION(DEG)  60.
 TRANSLA ( -0.000    0.000    0.000)     TRANSLA (  0.000   -0.000    0.000)
 uvw/hkl ( -1.000    1.000    1.000)     uvw/hkl (  1.000   -1.000    1.000)
 LOCATED (  2.419   -0.000    0.000)     LOCATED ( -0.000    2.419    0.000)

   NO.  79 INVERSE 320    ORDER   6        NO.  80 INVERSE 271    ORDER   6
    0.000   0.000   1.000     2.419         0.000   1.000   0.000     2.419
    1.000   0.000   0.000     2.419         0.000   0.000  -1.000     2.419
    0.000  -1.000   0.000     0.000         1.000   0.000   0.000     0.000
             OPERATION S(   6)                       OPERATION S(   6)
 DETERMINANT-1.; ROTATION(DEG)  60.      DETERMINANT-1.; ROTATION(DEG)  60.
 TRANSLA (  0.000   -0.000    0.000)     TRANSLA ( -0.000    0.000   -0.000)
 uvw/hkl (  1.000    1.000    1.000)     uvw/hkl ( -1.000   -1.000    1.000)
 LOCATED (  2.419    4.838    0.000)     LOCATED (  4.838    2.419    0.000)

   NO.  81 INVERSE 562    ORDER   6        NO.  82 INVERSE 897    ORDER   6
    0.000   0.000  -1.000     2.419         0.000   1.000   0.000     2.419
    1.000   0.000   0.000     2.419         0.000   0.000   1.000     2.419
    0.000   1.000   0.000     0.000        -1.000   0.000   0.000     0.000
             OPERATION S(   6)                       OPERATION S(   6)
 DETERMINANT-1.; ROTATION(DEG)  60.      DETERMINANT-1.; ROTATION(DEG)  60.
 TRANSLA (  0.000   -0.000   -0.000)     TRANSLA ( -0.000    0.000    0.000)
 uvw/hkl ( -1.000   -1.000    1.000)     uvw/hkl (  1.000    1.000    1.000)
 LOCATED (  2.419    4.838    0.000)     LOCATED (  4.838    2.419   -0.000)

   NO.  83 INVERSE 948    ORDER   6        NO.  84 INVERSE 371    ORDER   6
    0.000   0.000   1.000     2.419         0.000  -1.000   0.000     2.419
   -1.000   0.000   0.000     2.419         0.000   0.000   1.000     2.419
    0.000   1.000   0.000     0.000         1.000   0.000   0.000     0.000
             OPERATION S(   6)                       OPERATION S(   6)
 DETERMINANT-1.; ROTATION(DEG)  60.      DETERMINANT-1.; ROTATION(DEG)  60.
 TRANSLA ( -0.000    0.000    0.000)     TRANSLA (  0.000   -0.000    0.000)
 uvw/hkl (  1.000   -1.000    1.000)     uvw/hkl ( -1.000    1.000    1.000)
 LOCATED (  2.419   -0.000   -0.000)     LOCATED ( -0.000    2.419    0.000)

   NO.  85 INVERSE 133    ORDER   2        NO.  86 INVERSE  86    ORDER   2
    0.000   1.000   0.000     2.419         0.000  -1.000   0.000     2.419
    1.000   0.000   0.000     2.419        -1.000   0.000   0.000     2.419
    0.000   0.000   1.000     0.000         0.000   0.000   1.000     0.000
             OPERATION M(   2)                       OPERATION M(   2)
 DETERMINANT-1.; ROTATION(DEG)   0.      DETERMINANT-1.; ROTATION(DEG)   0.
 TRANSLA (  2.419    2.419    0.000)     TRANSLA ( -0.000    0.000    0.000)
 uvw/hkl (  1.000   -1.000    0.000)     uvw/hkl (  1.000    1.000    0.000)
 LOCATED ( -0.000    0.000    0.000)     LOCATED (  2.419    0.000    0.000)

   NO.  87 INVERSE 760    ORDER   4        NO.  88 INVERSE1047    ORDER   4
    0.000  -1.000   0.000     2.419         0.000   1.000   0.000     2.419
    1.000   0.000   0.000     2.419        -1.000   0.000   0.000     2.419
    0.000   0.000  -1.000     0.000         0.000   0.000  -1.000     0.000
             OPERATION S(   4)                       OPERATION S(   4)
 DETERMINANT-1.; ROTATION(DEG)  90.      DETERMINANT-1.; ROTATION(DEG)  90.
 TRANSLA (  0.000   -0.000    0.000)     TRANSLA ( -0.000    0.000    0.000)
 uvw/hkl (  0.000    0.000    2.000)     uvw/hkl (  0.000    0.000    2.000)
 LOCATED ( -0.000    2.419    0.000)     LOCATED (  2.419    0.000    0.000)

   NO.  89 INVERSE 329    ORDER   2        NO.  90 INVERSE 906    ORDER   2
    1.000   0.000   0.000     2.419         0.000   0.000   1.000     2.419
    0.000   0.000   1.000     2.419         0.000   1.000   0.000     2.419
    0.000   1.000   0.000     0.000         1.000   0.000   0.000     0.000
             OPERATION M(   2)                       OPERATION M(   2)
 DETERMINANT-1.; ROTATION(DEG)   0.      DETERMINANT-1.; ROTATION(DEG)   0.
 TRANSLA (  2.419    1.210    1.210)     TRANSLA (  1.210    2.419    1.210)
 uvw/hkl (  0.000   -1.000    1.000)     uvw/hkl (  1.000    0.000   -1.000)
 LOCATED (  0.000    1.210    0.000)     LOCATED (  1.210    0.000    0.000)

   NO.  91 INVERSE 189    ORDER   4        NO.  92 INVERSE 382    ORDER   4
   -1.000   0.000   0.000     2.419         0.000   0.000   1.000     2.419
    0.000   0.000  -1.000     2.419         0.000  -1.000   0.000     2.419
    0.000   1.000   0.000     0.000        -1.000   0.000   0.000     0.000
             OPERATION S(   4)                       OPERATION S(   4)
 DETERMINANT-1.; ROTATION(DEG)  90.      DETERMINANT-1.; ROTATION(DEG)  90.
 TRANSLA (  0.000   -0.000   -0.000)     TRANSLA ( -0.000   -0.000    0.000)
 uvw/hkl (  0.000   -2.000    2.000)     uvw/hkl (  2.000    0.000    2.000)
 LOCATED (  1.210    2.419    0.000)     LOCATED (  2.419    1.210    0.000)

   NO.  93 INVERSE 955    ORDER   4        NO.  94 INVERSE 476    ORDER   4
   -1.000   0.000   0.000     2.419         0.000   0.000  -1.000     2.419
    0.000   0.000   1.000     2.419         0.000  -1.000   0.000     2.419
    0.000  -1.000   0.000     0.000         1.000   0.000   0.000     0.000
             OPERATION S(   4)                       OPERATION S(   4)
 DETERMINANT-1.; ROTATION(DEG)  90.      DETERMINANT-1.; ROTATION(DEG)  90.
 TRANSLA (  0.000   -0.000    0.000)     TRANSLA ( -0.000   -0.000   -0.000)
 uvw/hkl (  0.000    2.000    2.000)     uvw/hkl ( -2.000    0.000    2.000)
 LOCATED (  1.210    2.419   -0.000)     LOCATED (  2.419    1.210    0.000)

   NO.  95 INVERSE 575    ORDER   2        NO.  96 INVERSE 288    ORDER   2
    1.000   0.000   0.000     2.419         0.000   0.000  -1.000     2.419
    0.000   0.000  -1.000     2.419         0.000   1.000   0.000     2.419
    0.000  -1.000   0.000     0.000        -1.000   0.000   0.000     0.000
             OPERATION M(   2)                       OPERATION M(   2)
 DETERMINANT-1.; ROTATION(DEG)   0.      DETERMINANT-1.; ROTATION(DEG)   0.
 TRANSLA (  2.419    1.210   -1.210)     TRANSLA (  1.210    2.419   -1.210)
 uvw/hkl (  0.000   -1.000   -1.000)     uvw/hkl (  1.000    0.000    1.000)
 LOCATED (  0.000    1.210    0.000)     LOCATED (  1.210    0.000    0.000)

   NO.  97 INVERSE  49    ORDER   1        NO.  98 INVERSE  98    ORDER   2
    1.000   0.000   0.000    -2.419        -1.000   0.000   0.000    -2.419
    0.000   1.000   0.000    -2.419         0.000  -1.000   0.000    -2.419
    0.000   0.000   1.000     0.000         0.000   0.000   1.000     0.000
             OPERATION E(   1)                       OPERATION C(   2)
 DETERMINANT 1.; ROTATION(DEG)   0.      DETERMINANT 1.; ROTATION(DEG) 180.
 TRANSLA ( -2.419   -2.419    0.000)     TRANSLA (  0.000    0.000    0.000)
 uvw/hkl (  0.000    0.000    0.000)     uvw/hkl (  0.000    0.000    4.000)
 LOCATED (  0.000    0.000    0.000)     LOCATED ( -1.210   -1.210    0.000)

   NO.  99 INVERSE1011    ORDER   2        NO. 100 INVERSE 724    ORDER   2
    1.000   0.000   0.000    -2.419        -1.000   0.000   0.000    -2.419
    0.000  -1.000   0.000    -2.419         0.000   1.000   0.000    -2.419
    0.000   0.000  -1.000     0.000         0.000   0.000  -1.000     0.000
             OPERATION C(   2)                       OPERATION C(   2)
 DETERMINANT 1.; ROTATION(DEG) 180.      DETERMINANT 1.; ROTATION(DEG) 180.
 TRANSLA ( -2.419    0.000    0.000)     TRANSLA (  0.000   -2.419    0.000)
 uvw/hkl (  4.000    0.000    0.000)     uvw/hkl (  0.000   -4.000    0.000)
 LOCATED (  0.000   -1.210    0.000)     LOCATED ( -1.210    0.000    0.000)

   NO. 101 INVERSE 150    ORDER   3        NO. 102 INVERSE 437    ORDER   3
    0.000   0.000   1.000    -2.419         0.000   1.000   0.000    -2.419
    1.000   0.000   0.000    -2.419         0.000   0.000   1.000    -2.419
    0.000   1.000   0.000     0.000         1.000   0.000   0.000     0.000
             OPERATION C(   3)                       OPERATION C(   3)
 DETERMINANT 1.; ROTATION(DEG) 120.      DETERMINANT 1.; ROTATION(DEG) 120.
 TRANSLA ( -1.613   -1.613   -1.613)     TRANSLA ( -1.613   -1.613   -1.613)
 uvw/hkl (  1.000    1.000    1.000)     uvw/hkl (  1.000    1.000    1.000)
 LOCATED ( -0.806   -1.613    0.000)     LOCATED ( -1.613   -0.806    0.000)

   NO. 103 INVERSE 296    ORDER   3        NO. 104 INVERSE 247    ORDER   3
    0.000   0.000  -1.000    -2.419         0.000  -1.000   0.000    -2.419
   -1.000   0.000   0.000    -2.419         0.000   0.000   1.000    -2.419
    0.000   1.000   0.000     0.000        -1.000   0.000   0.000     0.000
             OPERATION C(   3)                       OPERATION C(   3)
 DETERMINANT 1.; ROTATION(DEG) 120.      DETERMINANT 1.; ROTATION(DEG) 120.
 TRANSLA (  0.000    0.000    0.000)     TRANSLA (  0.000    0.000   -0.000)
 uvw/hkl ( -1.000    1.000    1.000)     uvw/hkl ( -1.000    1.000    1.000)
 LOCATED ( -2.419    0.000    0.000)     LOCATED (  0.000   -2.419    0.000)

   NO. 105 INVERSE 538    ORDER   3        NO. 106 INVERSE 873    ORDER   3
    0.000   0.000   1.000    -2.419         0.000  -1.000   0.000    -2.419
   -1.000   0.000   0.000    -2.419         0.000   0.000  -1.000    -2.419
    0.000  -1.000   0.000     0.000         1.000   0.000   0.000     0.000
             OPERATION C(   3)                       OPERATION C(   3)
 DETERMINANT 1.; ROTATION(DEG) 120.      DETERMINANT 1.; ROTATION(DEG) 120.
 TRANSLA (  0.000    0.000    0.000)     TRANSLA (  0.000    0.000    0.000)
 uvw/hkl (  1.000   -1.000    1.000)     uvw/hkl (  1.000   -1.000    1.000)
 LOCATED ( -2.419    0.000    0.000)     LOCATED (  0.000   -2.419    0.000)

   NO. 107 INVERSE 924    ORDER   3        NO. 108 INVERSE 347    ORDER   3
    0.000   0.000  -1.000    -2.419         0.000   1.000   0.000    -2.419
    1.000   0.000   0.000    -2.419         0.000   0.000  -1.000    -2.419
    0.000  -1.000   0.000     0.000        -1.000   0.000   0.000     0.000
             OPERATION C(   3)                       OPERATION C(   3)
 DETERMINANT 1.; ROTATION(DEG) 120.      DETERMINANT 1.; ROTATION(DEG) 120.
 TRANSLA ( -1.613   -1.613    1.613)     TRANSLA ( -1.613   -1.613    1.613)
 uvw/hkl ( -1.000   -1.000    1.000)     uvw/hkl ( -1.000   -1.000    1.000)
 LOCATED ( -0.806   -1.613    0.000)     LOCATED ( -1.613   -0.806    0.000)

   NO. 109 INVERSE 109    ORDER   2        NO. 110 INVERSE  62    ORDER   2
    0.000  -1.000   0.000    -2.419         0.000   1.000   0.000    -2.419
   -1.000   0.000   0.000    -2.419         1.000   0.000   0.000    -2.419
    0.000   0.000  -1.000     0.000         0.000   0.000  -1.000     0.000
             OPERATION C(   2)                       OPERATION C(   2)
 DETERMINANT 1.; ROTATION(DEG) 180.      DETERMINANT 1.; ROTATION(DEG) 180.
 TRANSLA (  0.000    0.000    0.000)     TRANSLA ( -2.419   -2.419    0.000)
 uvw/hkl (  2.000   -2.000    0.000)     uvw/hkl ( -2.000   -2.000    0.000)
 LOCATED ( -2.419    0.000    0.000)     LOCATED (  0.000    0.000    0.000)

   NO. 111 INVERSE 736    ORDER   4        NO. 112 INVERSE1023    ORDER   4
    0.000   1.000   0.000    -2.419         0.000  -1.000   0.000    -2.419
   -1.000   0.000   0.000    -2.419         1.000   0.000   0.000    -2.419
    0.000   0.000   1.000     0.000         0.000   0.000   1.000     0.000
             OPERATION C(   4)                       OPERATION C(   4)
 DETERMINANT 1.; ROTATION(DEG)  90.      DETERMINANT 1.; ROTATION(DEG)  90.
 TRANSLA (  0.000    0.000    0.000)     TRANSLA (  0.000    0.000    0.000)
 uvw/hkl (  0.000    0.000    2.000)     uvw/hkl (  0.000    0.000    2.000)
 LOCATED ( -2.419    0.000    0.000)     LOCATED (  0.000   -2.419    0.000)

   NO. 113 INVERSE 305    ORDER   2        NO. 114 INVERSE 882    ORDER   2
   -1.000   0.000   0.000    -2.419         0.000   0.000  -1.000    -2.419
    0.000   0.000  -1.000    -2.419         0.000  -1.000   0.000    -2.419
    0.000  -1.000   0.000     0.000        -1.000   0.000   0.000     0.000
             OPERATION C(   2)                       OPERATION C(   2)
 DETERMINANT 1.; ROTATION(DEG) 180.      DETERMINANT 1.; ROTATION(DEG) 180.
 TRANSLA (  0.000   -1.210    1.210)     TRANSLA ( -1.210    0.000    1.210)
 uvw/hkl (  0.000   -2.000    2.000)     uvw/hkl ( -2.000    0.000    2.000)
 LOCATED ( -1.210   -1.210    0.000)     LOCATED ( -1.210   -1.210    0.000)

   NO. 115 INVERSE 165    ORDER   4        NO. 116 INVERSE 358    ORDER   4
    1.000   0.000   0.000    -2.419         0.000   0.000  -1.000    -2.419
    0.000   0.000   1.000    -2.419         0.000   1.000   0.000    -2.419
    0.000  -1.000   0.000     0.000         1.000   0.000   0.000     0.000
             OPERATION C(   4)                       OPERATION C(   4)
 DETERMINANT 1.; ROTATION(DEG)  90.      DETERMINANT 1.; ROTATION(DEG)  90.
 TRANSLA ( -2.419    0.000   -0.000)     TRANSLA (  0.000   -2.419    0.000)
 uvw/hkl (  2.000    0.000    0.000)     uvw/hkl (  0.000   -2.000    0.000)
 LOCATED (  0.000   -1.210    1.210)     LOCATED ( -1.210    0.000   -1.210)

   NO. 117 INVERSE 931    ORDER   4        NO. 118 INVERSE 452    ORDER   4
    1.000   0.000   0.000    -2.419         0.000   0.000   1.000    -2.419
    0.000   0.000  -1.000    -2.419         0.000   1.000   0.000    -2.419
    0.000   1.000   0.000     0.000        -1.000   0.000   0.000     0.000
             OPERATION C(   4)                       OPERATION C(   4)
 DETERMINANT 1.; ROTATION(DEG)  90.      DETERMINANT 1.; ROTATION(DEG)  90.
 TRANSLA ( -2.419    0.000    0.000)     TRANSLA (  0.000   -2.419   -0.000)
 uvw/hkl (  2.000    0.000    0.000)     uvw/hkl (  0.000   -2.000    0.000)
 LOCATED (  0.000   -1.210   -1.210)     LOCATED ( -1.210    0.000    1.210)

   NO. 119 INVERSE 551    ORDER   2        NO. 120 INVERSE 264    ORDER   2
   -1.000   0.000   0.000    -2.419         0.000   0.000   1.000    -2.419
    0.000   0.000   1.000    -2.419         0.000  -1.000   0.000    -2.419
    0.000   1.000   0.000     0.000         1.000   0.000   0.000     0.000
             OPERATION C(   2)                       OPERATION C(   2)
 DETERMINANT 1.; ROTATION(DEG) 180.      DETERMINANT 1.; ROTATION(DEG) 180.
 TRANSLA (  0.000   -1.210   -1.210)     TRANSLA ( -1.210    0.000   -1.210)
 uvw/hkl (  0.000    2.000    2.000)     uvw/hkl (  2.000    0.000    2.000)
 LOCATED ( -1.210   -1.210    0.000)     LOCATED ( -1.210   -1.210    0.000)

   NO. 121 INVERSE 121    ORDER   2        NO. 122 INVERSE  74    ORDER   2
   -1.000   0.000   0.000    -2.419         1.000   0.000   0.000    -2.419
    0.000  -1.000   0.000    -2.419         0.000   1.000   0.000    -2.419
    0.000   0.000  -1.000     0.000         0.000   0.000  -1.000     0.000
             OPERATION I(   2)                       OPERATION M(   2)
 DETERMINANT-1.; ROTATION(DEG) 180.      DETERMINANT-1.; ROTATION(DEG)   0.
 TRANSLA (  0.000    0.000    0.000)     TRANSLA ( -2.419   -2.419    0.000)
 uvw/hkl (  0.000    0.000    0.000)     uvw/hkl (  0.000    0.000   -2.000)
 LOCATED ( -1.210   -1.210    0.000)     LOCATED (  0.000    0.000    0.000)

   NO. 123 INVERSE 747    ORDER   2        NO. 124 INVERSE1036    ORDER   2
   -1.000   0.000   0.000    -2.419         1.000   0.000   0.000    -2.419
    0.000   1.000   0.000    -2.419         0.000  -1.000   0.000    -2.419
    0.000   0.000   1.000     0.000         0.000   0.000   1.000     0.000
             OPERATION M(   2)                       OPERATION M(   2)
 DETERMINANT-1.; ROTATION(DEG)   0.      DETERMINANT-1.; ROTATION(DEG)   0.
 TRANSLA (  0.000   -2.419    0.000)     TRANSLA ( -2.419    0.000    0.000)
 uvw/hkl (  2.000    0.000    0.000)     uvw/hkl (  0.000   -2.000    0.000)
 LOCATED ( -1.210    0.000    0.000)     LOCATED (  0.000   -1.210    0.000)

   NO. 125 INVERSE 318    ORDER   6        NO. 126 INVERSE 893    ORDER   6
    0.000   0.000  -1.000    -2.419         0.000  -1.000   0.000    -2.419
   -1.000   0.000   0.000    -2.419         0.000   0.000  -1.000    -2.419
    0.000  -1.000   0.000     0.000        -1.000   0.000   0.000     0.000
             OPERATION S(   6)                       OPERATION S(   6)
 DETERMINANT-1.; ROTATION(DEG)  60.      DETERMINANT-1.; ROTATION(DEG)  60.
 TRANSLA (  0.000    0.000    0.000)     TRANSLA (  0.000    0.000    0.000)
 uvw/hkl ( -1.000    1.000    1.000)     uvw/hkl (  1.000   -1.000    1.000)
 LOCATED ( -2.419    0.000   -0.000)     LOCATED (  0.000   -2.419    0.000)

   NO. 127 INVERSE 176    ORDER   6        NO. 128 INVERSE 367    ORDER   6
    0.000   0.000   1.000    -2.419         0.000   1.000   0.000    -2.419
    1.000   0.000   0.000    -2.419         0.000   0.000  -1.000    -2.419
    0.000  -1.000   0.000     0.000         1.000   0.000   0.000     0.000
             OPERATION S(   6)                       OPERATION S(   6)
 DETERMINANT-1.; ROTATION(DEG)  60.      DETERMINANT-1.; ROTATION(DEG)  60.
 TRANSLA (  0.000    0.000   -0.000)     TRANSLA (  0.000    0.000    0.000)
 uvw/hkl (  1.000    1.000    1.000)     uvw/hkl ( -1.000   -1.000    1.000)
 LOCATED ( -2.419   -4.838    0.000)     LOCATED ( -4.838   -2.419   -0.000)

   NO. 129 INVERSE 946    ORDER   6        NO. 130 INVERSE 465    ORDER   6
    0.000   0.000  -1.000    -2.419         0.000   1.000   0.000    -2.419
    1.000   0.000   0.000    -2.419         0.000   0.000   1.000    -2.419
    0.000   1.000   0.000     0.000        -1.000   0.000   0.000     0.000
             OPERATION S(   6)                       OPERATION S(   6)
 DETERMINANT-1.; ROTATION(DEG)  60.      DETERMINANT-1.; ROTATION(DEG)  60.
 TRANSLA (  0.000    0.000    0.000)     TRANSLA (  0.000    0.000   -0.000)
 uvw/hkl ( -1.000   -1.000    1.000)     uvw/hkl (  1.000    1.000    1.000)
 LOCATED ( -2.419   -4.838    0.000)     LOCATED ( -4.838   -2.419    0.000)

   NO. 131 INVERSE 564    ORDER   6        NO. 132 INVERSE 275    ORDER   6
    0.000   0.000   1.000    -2.419         0.000  -1.000   0.000    -2.419
   -1.000   0.000   0.000    -2.419         0.000   0.000   1.000    -2.419
    0.000   1.000   0.000     0.000         1.000   0.000   0.000     0.000
             OPERATION S(   6)                       OPERATION S(   6)
 DETERMINANT-1.; ROTATION(DEG)  60.      DETERMINANT-1.; ROTATION(DEG)  60.
 TRANSLA (  0.000    0.000    0.000)     TRANSLA (  0.000    0.000    0.000)
 uvw/hkl (  1.000   -1.000    1.000)     uvw/hkl ( -1.000    1.000    1.000)
 LOCATED ( -2.419    0.000    0.000)     LOCATED (  0.000   -2.419    0.000)

   NO. 133 INVERSE  85    ORDER   2        NO. 134 INVERSE 134    ORDER   2
    0.000   1.000   0.000    -2.419         0.000  -1.000   0.000    -2.419
    1.000   0.000   0.000    -2.419        -1.000   0.000   0.000    -2.419
    0.000   0.000   1.000     0.000         0.000   0.000   1.000     0.000
             OPERATION M(   2)                       OPERATION M(   2)
 DETERMINANT-1.; ROTATION(DEG)   0.      DETERMINANT-1.; ROTATION(DEG)   0.
 TRANSLA ( -2.419   -2.419    0.000)     TRANSLA (  0.000    0.000    0.000)
 uvw/hkl (  1.000   -1.000    0.000)     uvw/hkl (  1.000    1.000    0.000)
 LOCATED (  0.000    0.000    0.000)     LOCATED ( -2.419    0.000    0.000)

   NO. 135 INVERSE1048    ORDER   4        NO. 136 INVERSE 759    ORDER   4
    0.000  -1.000   0.000    -2.419         0.000   1.000   0.000    -2.419
    1.000   0.000   0.000    -2.419        -1.000   0.000   0.000    -2.419
    0.000   0.000  -1.000     0.000         0.000   0.000  -1.000     0.000
             OPERATION S(   4)                       OPERATION S(   4)
 DETERMINANT-1.; ROTATION(DEG)  90.      DETERMINANT-1.; ROTATION(DEG)  90.
 TRANSLA (  0.000    0.000    0.000)     TRANSLA (  0.000    0.000    0.000)
 uvw/hkl (  0.000    0.000    2.000)     uvw/hkl (  0.000    0.000    2.000)
 LOCATED (  0.000   -2.419    0.000)     LOCATED ( -2.419    0.000    0.000)

   NO. 137 INVERSE 185    ORDER   2        NO. 138 INVERSE 474    ORDER   2
    1.000   0.000   0.000    -2.419         0.000   0.000   1.000    -2.419
    0.000   0.000   1.000    -2.419         0.000   1.000   0.000    -2.419
    0.000   1.000   0.000     0.000         1.000   0.000   0.000     0.000
             OPERATION M(   2)                       OPERATION M(   2)
 DETERMINANT-1.; ROTATION(DEG)   0.      DETERMINANT-1.; ROTATION(DEG)   0.
 TRANSLA ( -2.419   -1.210   -1.210)     TRANSLA ( -1.210   -2.419   -1.210)
 uvw/hkl (  0.000   -1.000    1.000)     uvw/hkl (  1.000    0.000   -1.000)
 LOCATED (  0.000   -1.210    0.000)     LOCATED ( -1.210    0.000    0.000)

   NO. 139 INVERSE 333    ORDER   4        NO. 140 INVERSE 286    ORDER   4
   -1.000   0.000   0.000    -2.419         0.000   0.000   1.000    -2.419
    0.000   0.000  -1.000    -2.419         0.000  -1.000   0.000    -2.419
    0.000   1.000   0.000     0.000        -1.000   0.000   0.000     0.000
             OPERATION S(   4)                       OPERATION S(   4)
 DETERMINANT-1.; ROTATION(DEG)  90.      DETERMINANT-1.; ROTATION(DEG)  90.
 TRANSLA (  0.000    0.000    0.000)     TRANSLA (  0.000    0.000   -0.000)
 uvw/hkl (  0.000   -2.000    2.000)     uvw/hkl (  2.000    0.000    2.000)
 LOCATED ( -1.210   -2.419   -0.000)     LOCATED ( -2.419   -1.210    0.000)

   NO. 141 INVERSE 571    ORDER   4        NO. 142 INVERSE 908    ORDER   4
   -1.000   0.000   0.000    -2.419         0.000   0.000  -1.000    -2.419
    0.000   0.000   1.000    -2.419         0.000  -1.000   0.000    -2.419
    0.000  -1.000   0.000     0.000         1.000   0.000   0.000     0.000
             OPERATION S(   4)                       OPERATION S(   4)
 DETERMINANT-1.; ROTATION(DEG)  90.      DETERMINANT-1.; ROTATION(DEG)  90.
 TRANSLA (  0.000    0.000   -0.000)     TRANSLA (  0.000    0.000    0.000)
 uvw/hkl (  0.000    2.000    2.000)     uvw/hkl ( -2.000    0.000    2.000)
 LOCATED ( -1.210   -2.419    0.000)     LOCATED ( -2.419   -1.210    0.000)

   NO. 143 INVERSE 959    ORDER   2        NO. 144 INVERSE 384    ORDER   2
    1.000   0.000   0.000    -2.419         0.000   0.000  -1.000    -2.419
    0.000   0.000  -1.000    -2.419         0.000   1.000   0.000    -2.419
    0.000  -1.000   0.000     0.000        -1.000   0.000   0.000     0.000
             OPERATION M(   2)                       OPERATION M(   2)
 DETERMINANT-1.; ROTATION(DEG)   0.      DETERMINANT-1.; ROTATION(DEG)   0.
 TRANSLA ( -2.419   -1.210    1.210)     TRANSLA ( -1.210   -2.419    1.210)
 uvw/hkl (  0.000   -1.000   -1.000)     uvw/hkl (  1.000    0.000    1.000)
 LOCATED (  0.000   -1.210    0.000)     LOCATED ( -1.210    0.000    0.000)

   NO. 145 INVERSE 289    ORDER   1        NO. 146 INVERSE 914    ORDER   2
    1.000   0.000   0.000     2.419        -1.000   0.000   0.000     2.419
    0.000   1.000   0.000     0.000         0.000  -1.000   0.000     0.000
    0.000   0.000   1.000     2.419         0.000   0.000   1.000     2.419
             OPERATION E(   1)                       OPERATION C(   2)
 DETERMINANT 1.; ROTATION(DEG)   0.      DETERMINANT 1.; ROTATION(DEG) 180.
 TRANSLA (  2.419    0.000    2.419)     TRANSLA (  0.000    0.000    2.419)
 uvw/hkl (  0.000    0.000    0.000)     uvw/hkl (  0.000    0.000    4.000)
 LOCATED (  0.000    0.000    0.000)     LOCATED (  1.210    0.000    0.000)

   NO. 147 INVERSE 531    ORDER   2        NO. 148 INVERSE 148    ORDER   2
    1.000   0.000   0.000     2.419        -1.000   0.000   0.000     2.419
    0.000  -1.000   0.000     0.000         0.000   1.000   0.000     0.000
    0.000   0.000  -1.000     2.419         0.000   0.000  -1.000     2.419
             OPERATION C(   2)                       OPERATION C(   2)
 DETERMINANT 1.; ROTATION(DEG) 180.      DETERMINANT 1.; ROTATION(DEG) 180.
 TRANSLA (  2.419    0.000   -0.000)     TRANSLA (  0.000    0.000   -0.000)
 uvw/hkl (  4.000    0.000    0.000)     uvw/hkl (  0.000   -4.000    0.000)
 LOCATED (  0.000    0.000    1.210)     LOCATED (  1.210    0.000    1.210)

   NO. 149 INVERSE 870    ORDER   3        NO. 150 INVERSE 101    ORDER   3
    0.000   0.000   1.000     2.419         0.000   1.000   0.000     2.419
    1.000   0.000   0.000     0.000         0.000   0.000   1.000     0.000
    0.000   1.000   0.000     2.419         1.000   0.000   0.000     2.419
             OPERATION C(   3)                       OPERATION C(   3)
 DETERMINANT 1.; ROTATION(DEG) 120.      DETERMINANT 1.; ROTATION(DEG) 120.
 TRANSLA (  1.613    1.613    1.613)     TRANSLA (  1.613    1.613    1.613)
 uvw/hkl (  1.000    1.000    1.000)     uvw/hkl (  1.000    1.000    1.000)
 LOCATED (  0.806   -0.806    0.000)     LOCATED ( -0.806   -1.613    0.000)

   NO. 151 INVERSE 248    ORDER   3        NO. 152 INVERSE  55    ORDER   3
    0.000   0.000  -1.000     2.419         0.000  -1.000   0.000     2.419
   -1.000   0.000   0.000     0.000         0.000   0.000   1.000     0.000
    0.000   1.000   0.000     2.419        -1.000   0.000   0.000     2.419
             OPERATION C(   3)                       OPERATION C(   3)
 DETERMINANT 1.; ROTATION(DEG) 120.      DETERMINANT 1.; ROTATION(DEG) 120.
 TRANSLA ( -0.000    0.000   -0.000)     TRANSLA ( -0.000    0.000    0.000)
 uvw/hkl ( -1.000    1.000    1.000)     uvw/hkl ( -1.000    1.000    1.000)
 LOCATED (  2.419   -2.419    0.000)     LOCATED (  2.419    0.000    0.000)

   NO. 153 INVERSE 346    ORDER   3        NO. 154 INVERSE 729    ORDER   3
    0.000   0.000   1.000     2.419         0.000  -1.000   0.000     2.419
   -1.000   0.000   0.000     0.000         0.000   0.000  -1.000     0.000
    0.000  -1.000   0.000     2.419         1.000   0.000   0.000     2.419
             OPERATION C(   3)                       OPERATION C(   3)
 DETERMINANT 1.; ROTATION(DEG) 120.      DETERMINANT 1.; ROTATION(DEG) 120.
 TRANSLA (  1.613   -1.613    1.613)     TRANSLA (  1.613   -1.613    1.613)
 uvw/hkl (  1.000   -1.000    1.000)     uvw/hkl (  1.000   -1.000    1.000)
 LOCATED (  0.806    0.806    0.000)     LOCATED ( -0.806    1.613    0.000)

   NO. 155 INVERSE 444    ORDER   3        NO. 156 INVERSE1019    ORDER   3
    0.000   0.000  -1.000     2.419         0.000   1.000   0.000     2.419
    1.000   0.000   0.000     0.000         0.000   0.000  -1.000     0.000
    0.000  -1.000   0.000     2.419        -1.000   0.000   0.000     2.419
             OPERATION C(   3)                       OPERATION C(   3)
 DETERMINANT 1.; ROTATION(DEG) 120.      DETERMINANT 1.; ROTATION(DEG) 120.
 TRANSLA ( -0.000   -0.000   -0.000)     TRANSLA ( -0.000    0.000    0.000)
 uvw/hkl ( -1.000   -1.000    1.000)     uvw/hkl ( -1.000   -1.000    1.000)
 LOCATED (  2.419    2.419    0.000)     LOCATED (  2.419    0.000    0.000)

   NO. 157 INVERSE 445    ORDER   2        NO. 158 INVERSE 254    ORDER   2
    0.000  -1.000   0.000     2.419         0.000   1.000   0.000     2.419
   -1.000   0.000   0.000     0.000         1.000   0.000   0.000     0.000
    0.000   0.000  -1.000     2.419         0.000   0.000  -1.000     2.419
             OPERATION C(   2)                       OPERATION C(   2)
 DETERMINANT 1.; ROTATION(DEG) 180.      DETERMINANT 1.; ROTATION(DEG) 180.
 TRANSLA (  1.210   -1.210   -0.000)     TRANSLA (  1.210    1.210   -0.000)
 uvw/hkl (  2.000   -2.000    0.000)     uvw/hkl ( -2.000   -2.000    0.000)
 LOCATED (  1.210    0.000    1.210)     LOCATED (  1.210    0.000    1.210)

   NO. 159 INVERSE 880    ORDER   4        NO. 160 INVERSE 351    ORDER   4
    0.000   1.000   0.000     2.419         0.000  -1.000   0.000     2.419
   -1.000   0.000   0.000     0.000         1.000   0.000   0.000     0.000
    0.000   0.000   1.000     2.419         0.000   0.000   1.000     2.419
             OPERATION C(   4)                       OPERATION C(   4)
 DETERMINANT 1.; ROTATION(DEG)  90.      DETERMINANT 1.; ROTATION(DEG)  90.
 TRANSLA ( -0.000    0.000    2.419)     TRANSLA ( -0.000   -0.000    2.419)
 uvw/hkl (  0.000    0.000    2.000)     uvw/hkl (  0.000    0.000    2.000)
 LOCATED (  1.210   -1.210    0.000)     LOCATED (  1.210    1.210    0.000)

   NO. 161 INVERSE  65    ORDER   2        NO. 162 INVERSE 162    ORDER   2
   -1.000   0.000   0.000     2.419         0.000   0.000  -1.000     2.419
    0.000   0.000  -1.000     0.000         0.000  -1.000   0.000     0.000
    0.000  -1.000   0.000     2.419        -1.000   0.000   0.000     2.419
             OPERATION C(   2)                       OPERATION C(   2)
 DETERMINANT 1.; ROTATION(DEG) 180.      DETERMINANT 1.; ROTATION(DEG) 180.
 TRANSLA (  0.000   -1.210    1.210)     TRANSLA ( -0.000    0.000    0.000)
 uvw/hkl (  0.000   -2.000    2.000)     uvw/hkl ( -2.000    0.000    2.000)
 LOCATED (  1.210    1.210    0.000)     LOCATED (  2.419    0.000    0.000)

   NO. 163 INVERSE 741    ORDER   4        NO. 164 INVERSE 550    ORDER   4
    1.000   0.000   0.000     2.419         0.000   0.000  -1.000     2.419
    0.000   0.000   1.000     0.000         0.000   1.000   0.000     0.000
    0.000  -1.000   0.000     2.419         1.000   0.000   0.000     2.419
             OPERATION C(   4)                       OPERATION C(   4)
 DETERMINANT 1.; ROTATION(DEG)  90.      DETERMINANT 1.; ROTATION(DEG)  90.
 TRANSLA (  2.419   -0.000   -0.000)     TRANSLA (  0.000    0.000   -0.000)
 uvw/hkl (  2.000    0.000    0.000)     uvw/hkl (  0.000   -2.000    0.000)
 LOCATED (  0.000    1.210    1.210)     LOCATED ( -0.000    0.000    2.419)

   NO. 165 INVERSE 115    ORDER   4        NO. 166 INVERSE 932    ORDER   4
    1.000   0.000   0.000     2.419         0.000   0.000   1.000     2.419
    0.000   0.000  -1.000     0.000         0.000   1.000   0.000     0.000
    0.000   1.000   0.000     2.419        -1.000   0.000   0.000     2.419
             OPERATION C(   4)                       OPERATION C(   4)
 DETERMINANT 1.; ROTATION(DEG)  90.      DETERMINANT 1.; ROTATION(DEG)  90.
 TRANSLA (  2.419    0.000   -0.000)     TRANSLA ( -0.000    0.000    0.000)
 uvw/hkl (  2.000    0.000    0.000)     uvw/hkl (  0.000   -2.000    0.000)
 LOCATED (  0.000   -1.210    1.210)     LOCATED (  2.419    0.000    0.000)

   NO. 167 INVERSE1031    ORDER   2        NO. 168 INVERSE 312    ORDER   2
   -1.000   0.000   0.000     2.419         0.000   0.000   1.000     2.419
    0.000   0.000   1.000     0.000         0.000  -1.000   0.000     0.000
    0.000   1.000   0.000     2.419         1.000   0.000   0.000     2.419
             OPERATION C(   2)                       OPERATION C(   2)
 DETERMINANT 1.; ROTATION(DEG) 180.      DETERMINANT 1.; ROTATION(DEG) 180.
 TRANSLA (  0.000    1.210    1.210)     TRANSLA (  2.419    0.000    2.419)
 uvw/hkl (  0.000    2.000    2.000)     uvw/hkl (  2.000    0.000    2.000)
 LOCATED (  1.210   -1.210    0.000)     LOCATED ( -0.000    0.000    0.000)

   NO. 169 INVERSE 169    ORDER   2        NO. 170 INVERSE 554    ORDER   2
   -1.000   0.000   0.000     2.419         1.000   0.000   0.000     2.419
    0.000  -1.000   0.000     0.000         0.000   1.000   0.000     0.000
    0.000   0.000  -1.000     2.419         0.000   0.000  -1.000     2.419
             OPERATION I(   2)                       OPERATION M(   2)
 DETERMINANT-1.; ROTATION(DEG) 180.      DETERMINANT-1.; ROTATION(DEG)   0.
 TRANSLA (  0.000    0.000   -0.000)     TRANSLA (  2.419    0.000   -0.000)
 uvw/hkl (  0.000    0.000    0.000)     uvw/hkl (  0.000    0.000   -2.000)
 LOCATED (  1.210    0.000    1.210)     LOCATED (  0.000    0.000    1.210)

   NO. 171 INVERSE 939    ORDER   2        NO. 172 INVERSE 316    ORDER   2
   -1.000   0.000   0.000     2.419         1.000   0.000   0.000     2.419
    0.000   1.000   0.000     0.000         0.000  -1.000   0.000     0.000
    0.000   0.000   1.000     2.419         0.000   0.000   1.000     2.419
             OPERATION M(   2)                       OPERATION M(   2)
 DETERMINANT-1.; ROTATION(DEG)   0.      DETERMINANT-1.; ROTATION(DEG)   0.
 TRANSLA (  0.000    0.000    2.419)     TRANSLA (  2.419    0.000    2.419)
 uvw/hkl (  2.000    0.000    0.000)     uvw/hkl (  0.000   -2.000    0.000)
 LOCATED (  1.210    0.000    0.000)     LOCATED (  0.000    0.000    0.000)

   NO. 173 INVERSE 462    ORDER   6        NO. 174 INVERSE  77    ORDER   6
    0.000   0.000  -1.000     2.419         0.000  -1.000   0.000     2.419
   -1.000   0.000   0.000     0.000         0.000   0.000  -1.000     0.000
    0.000  -1.000   0.000     2.419        -1.000   0.000   0.000     2.419
             OPERATION S(   6)                       OPERATION S(   6)
 DETERMINANT-1.; ROTATION(DEG)  60.      DETERMINANT-1.; ROTATION(DEG)  60.
 TRANSLA (  0.000    0.000   -0.000)     TRANSLA ( -0.000    0.000    0.000)
 uvw/hkl ( -1.000    1.000    1.000)     uvw/hkl (  1.000   -1.000    1.000)
 LOCATED (  2.419   -2.419    0.000)     LOCATED (  2.419    0.000   -0.000)

   NO. 175 INVERSE 368    ORDER   6        NO. 176 INVERSE 127    ORDER   6
    0.000   0.000   1.000     2.419         0.000   1.000   0.000     2.419
    1.000   0.000   0.000     0.000         0.000   0.000  -1.000     0.000
    0.000  -1.000   0.000     2.419         1.000   0.000   0.000     2.419
             OPERATION S(   6)                       OPERATION S(   6)
 DETERMINANT-1.; ROTATION(DEG)  60.      DETERMINANT-1.; ROTATION(DEG)  60.
 TRANSLA ( -0.000   -0.000    0.000)     TRANSLA (  0.000    0.000   -0.000)
 uvw/hkl (  1.000    1.000    1.000)     uvw/hkl ( -1.000   -1.000    1.000)
 LOCATED (  2.419    2.419   -0.000)     LOCATED (  2.419   -0.000    0.000)

   NO. 177 INVERSE 274    ORDER   6        NO. 178 INVERSE1041    ORDER   6
    0.000   0.000  -1.000     2.419         0.000   1.000   0.000     2.419
    1.000   0.000   0.000     0.000         0.000   0.000   1.000     0.000
    0.000   1.000   0.000     2.419        -1.000   0.000   0.000     2.419
             OPERATION S(   6)                       OPERATION S(   6)
 DETERMINANT-1.; ROTATION(DEG)  60.      DETERMINANT-1.; ROTATION(DEG)  60.
 TRANSLA (  0.000    0.000   -0.000)     TRANSLA ( -0.000    0.000    0.000)
 uvw/hkl ( -1.000   -1.000    1.000)     uvw/hkl (  1.000    1.000    1.000)
 LOCATED (  2.419    2.419    0.000)     LOCATED (  2.419   -0.000   -0.000)

   NO. 179 INVERSE 900    ORDER   6        NO. 180 INVERSE 755    ORDER   6
    0.000   0.000   1.000     2.419         0.000  -1.000   0.000     2.419
   -1.000   0.000   0.000     0.000         0.000   0.000   1.000     0.000
    0.000   1.000   0.000     2.419         1.000   0.000   0.000     2.419
             OPERATION S(   6)                       OPERATION S(   6)
 DETERMINANT-1.; ROTATION(DEG)  60.      DETERMINANT-1.; ROTATION(DEG)  60.
 TRANSLA ( -0.000    0.000    0.000)     TRANSLA (  0.000   -0.000   -0.000)
 uvw/hkl (  1.000   -1.000    1.000)     uvw/hkl ( -1.000    1.000    1.000)
 LOCATED (  2.419   -2.419   -0.000)     LOCATED (  2.419    0.000    0.000)

   NO. 181 INVERSE 901    ORDER   2        NO. 182 INVERSE 374    ORDER   2
    0.000   1.000   0.000     2.419         0.000  -1.000   0.000     2.419
    1.000   0.000   0.000     0.000        -1.000   0.000   0.000     0.000
    0.000   0.000   1.000     2.419         0.000   0.000   1.000     2.419
             OPERATION M(   2)                       OPERATION M(   2)
 DETERMINANT-1.; ROTATION(DEG)   0.      DETERMINANT-1.; ROTATION(DEG)   0.
 TRANSLA (  1.210    1.210    2.419)     TRANSLA (  1.210   -1.210    2.419)
 uvw/hkl (  1.000   -1.000    0.000)     uvw/hkl (  1.000    1.000    0.000)
 LOCATED (  1.210    0.000    0.000)     LOCATED (  1.210    0.000    0.000)

   NO. 183 INVERSE 472    ORDER   4        NO. 184 INVERSE 279    ORDER   4
    0.000  -1.000   0.000     2.419         0.000   1.000   0.000     2.419
    1.000   0.000   0.000     0.000        -1.000   0.000   0.000     0.000
    0.000   0.000  -1.000     2.419         0.000   0.000  -1.000     2.419
             OPERATION S(   4)                       OPERATION S(   4)
 DETERMINANT-1.; ROTATION(DEG)  90.      DETERMINANT-1.; ROTATION(DEG)  90.
 TRANSLA ( -0.000   -0.000   -0.000)     TRANSLA ( -0.000    0.000   -0.000)
 uvw/hkl (  0.000    0.000    2.000)     uvw/hkl (  0.000    0.000    2.000)
 LOCATED (  1.210    1.210    1.210)     LOCATED (  1.210   -1.210    1.210)

   NO. 185 INVERSE 137    ORDER   2        NO. 186 INVERSE 330    ORDER   2
    1.000   0.000   0.000     2.419         0.000   0.000   1.000     2.419
    0.000   0.000   1.000     0.000         0.000   1.000   0.000     0.000
    0.000   1.000   0.000     2.419         1.000   0.000   0.000     2.419
             OPERATION M(   2)                       OPERATION M(   2)
 DETERMINANT-1.; ROTATION(DEG)   0.      DETERMINANT-1.; ROTATION(DEG)   0.
 TRANSLA (  2.419    1.210    1.210)     TRANSLA (  2.419    0.000    2.419)
 uvw/hkl (  0.000   -1.000    1.000)     uvw/hkl (  1.000    0.000   -1.000)
 LOCATED (  0.000   -1.210    0.000)     LOCATED ( -0.000    0.000    0.000)

   NO. 187 INVERSE1053    ORDER   4        NO. 188 INVERSE 958    ORDER   4
   -1.000   0.000   0.000     2.419         0.000   0.000   1.000     2.419
    0.000   0.000  -1.000     0.000         0.000  -1.000   0.000     0.000
    0.000   1.000   0.000     2.419        -1.000   0.000   0.000     2.419
             OPERATION S(   4)                       OPERATION S(   4)
 DETERMINANT-1.; ROTATION(DEG)  90.      DETERMINANT-1.; ROTATION(DEG)  90.
 TRANSLA (  0.000    0.000   -0.000)     TRANSLA ( -0.000    0.000    0.000)
 uvw/hkl (  0.000   -2.000    2.000)     uvw/hkl (  2.000    0.000    2.000)
 LOCATED (  1.210   -0.000   -0.000)     LOCATED (  2.419    0.000    0.000)

   NO. 189 INVERSE  91    ORDER   4        NO. 190 INVERSE 572    ORDER   4
   -1.000   0.000   0.000     2.419         0.000   0.000  -1.000     2.419
    0.000   0.000   1.000     0.000         0.000  -1.000   0.000     0.000
    0.000  -1.000   0.000     2.419         1.000   0.000   0.000     2.419
             OPERATION S(   4)                       OPERATION S(   4)
 DETERMINANT-1.; ROTATION(DEG)  90.      DETERMINANT-1.; ROTATION(DEG)  90.
 TRANSLA (  0.000   -0.000   -0.000)     TRANSLA (  0.000    0.000   -0.000)
 uvw/hkl (  0.000    2.000    2.000)     uvw/hkl ( -2.000    0.000    2.000)
 LOCATED (  1.210    0.000   -0.000)     LOCATED (  2.419    0.000    0.000)

   NO. 191 INVERSE 767    ORDER   2        NO. 192 INVERSE 192    ORDER   2
    1.000   0.000   0.000     2.419         0.000   0.000  -1.000     2.419
    0.000   0.000  -1.000     0.000         0.000   1.000   0.000     0.000
    0.000  -1.000   0.000     2.419        -1.000   0.000   0.000     2.419
             OPERATION M(   2)                       OPERATION M(   2)
 DETERMINANT-1.; ROTATION(DEG)   0.      DETERMINANT-1.; ROTATION(DEG)   0.
 TRANSLA (  2.419   -1.210    1.210)     TRANSLA ( -0.000    0.000    0.000)
[...]
1202 674  0.00  1.00 -0.00  1.00  0.00  0.00 -1.00 -1.00 -1.00 -0.33 -0.33  0.33
12031203 -1.00 -1.00 -1.00  0.00 -0.00  1.00  0.00  1.00 -0.00 -0.33 -0.33  0.33
12041204  0.00 -0.00  1.00 -1.00 -1.00 -1.00  1.00  0.00  0.00 -0.33 -0.33  0.33
1205 774  0.00 -0.00  1.00  1.00  0.00  0.00  0.00  1.00 -0.00 -0.33 -0.33  0.33
12061061  0.00  1.00 -0.00  0.00 -0.00  1.00  1.00  0.00  0.00 -0.33 -0.33  0.33
1207 776  1.00  0.00  0.00  0.00 -0.00  1.00 -1.00 -1.00 -1.00 -0.33 -0.33  0.33
1208 823  1.00  0.00  0.00 -1.00 -1.00 -1.00  0.00  1.00 -0.00 -0.33 -0.33  0.33
12091114 -1.00 -1.00 -1.00  0.00  1.00 -0.00  1.00  0.00  0.00 -0.33 -0.33  0.33
12101065  0.00 -0.00  1.00  0.00  1.00 -0.00 -1.00 -1.00 -1.00 -0.33 -0.33  0.33
12111116  0.00  1.00 -0.00 -1.00 -1.00 -1.00  0.00 -0.00  1.00 -0.33 -0.33  0.33
1212 827 -1.00 -1.00 -1.00  1.00  0.00  0.00  0.00 -0.00  1.00 -0.33 -0.33  0.33
12131213  0.00 -1.00  0.00 -1.00 -0.00 -0.00  0.00  0.00 -1.00 -0.33 -0.33  0.33
12141214 -1.00 -0.00 -0.00  0.00 -1.00  0.00  1.00  1.00  1.00 -0.33 -0.33  0.33
1215 688  0.00  0.00 -1.00  1.00  1.00  1.00  0.00 -1.00  0.00 -0.33 -0.33  0.33
1216 687  1.00  1.00  1.00  0.00  0.00 -1.00 -1.00 -0.00 -0.00 -0.33 -0.33  0.33
12171121 -1.00 -0.00 -0.00  0.00  0.00 -1.00  0.00 -1.00  0.00 -0.33 -0.33  0.33
1218 834  0.00  0.00 -1.00  0.00 -1.00  0.00 -1.00 -0.00 -0.00 -0.33 -0.33  0.33
12191125  0.00  0.00 -1.00 -1.00 -0.00 -0.00  1.00  1.00  1.00 -0.33 -0.33  0.33
12201078  1.00  1.00  1.00 -1.00 -0.00 -0.00  0.00 -1.00  0.00 -0.33 -0.33  0.33
1221 787  0.00 -1.00  0.00  1.00  1.00  1.00 -1.00 -0.00 -0.00 -0.33 -0.33  0.33
1222 836  0.00 -1.00  0.00  0.00  0.00 -1.00  1.00  1.00  1.00 -0.33 -0.33  0.33
1223 791  1.00  1.00  1.00  0.00 -1.00  0.00  0.00  0.00 -1.00 -0.33 -0.33  0.33
12241080 -1.00 -0.00 -0.00  1.00  1.00  1.00  0.00  0.00 -1.00 -0.33 -0.33  0.33
12251225 -1.00 -0.00 -0.00  0.00 -1.00  0.00  0.00  0.00 -1.00 -0.33 -0.33  0.33
12261226  0.00 -1.00  0.00 -1.00 -0.00 -0.00  1.00  1.00  1.00 -0.33 -0.33  0.33
1227 699  1.00  1.00  1.00  0.00  0.00 -1.00  0.00 -1.00  0.00 -0.33 -0.33  0.33
1228 700  0.00  0.00 -1.00  1.00  1.00  1.00 -1.00 -0.00 -0.00 -0.33 -0.33  0.33
12291134  0.00  0.00 -1.00 -1.00 -0.00 -0.00  0.00 -1.00  0.00 -0.33 -0.33  0.33
1230 845  0.00 -1.00  0.00  0.00  0.00 -1.00 -1.00 -0.00 -0.00 -0.33 -0.33  0.33
12311136 -1.00 -0.00 -0.00  0.00  0.00 -1.00  1.00  1.00  1.00 -0.33 -0.33  0.33
12321087 -1.00 -0.00 -0.00  1.00  1.00  1.00  0.00 -1.00  0.00 -0.33 -0.33  0.33
1233 802  1.00  1.00  1.00  0.00 -1.00  0.00 -1.00 -0.00 -0.00 -0.33 -0.33  0.33
1234 849  0.00  0.00 -1.00  0.00 -1.00  0.00  1.00  1.00  1.00 -0.33 -0.33  0.33
1235 804  0.00 -1.00  0.00  1.00  1.00  1.00  0.00  0.00 -1.00 -0.33 -0.33  0.33
12361091  1.00  1.00  1.00 -1.00 -0.00 -0.00  0.00  0.00 -1.00 -0.33 -0.33  0.33
1237 709  0.00  1.00 -0.00  1.00  0.00  0.00  0.00 -0.00  1.00 -0.33 -0.33  0.33
1238 710  1.00  0.00  0.00  0.00  1.00 -0.00 -1.00 -1.00 -1.00 -0.33 -0.33  0.33
12391240  0.00 -0.00  1.00 -1.00 -1.00 -1.00  0.00  1.00 -0.00 -0.33 -0.33  0.33
12401239 -1.00 -1.00 -1.00  0.00 -0.00  1.00  1.00  0.00  0.00 -0.33 -0.33  0.33
1241 809  1.00  0.00  0.00  0.00 -0.00  1.00  0.00  1.00 -0.00 -0.33 -0.33  0.33
12421098  0.00 -0.00  1.00  0.00  1.00 -0.00  1.00  0.00  0.00 -0.33 -0.33  0.33
1243 813  0.00 -0.00  1.00  1.00  0.00  0.00 -1.00 -1.00 -1.00 -0.33 -0.33  0.33
1244 862 -1.00 -1.00 -1.00  1.00  0.00  0.00  0.00  1.00 -0.00 -0.33 -0.33  0.33
12451147  0.00  1.00 -0.00 -1.00 -1.00 -1.00  1.00  0.00  0.00 -0.33 -0.33  0.33
12461100  0.00  1.00 -0.00  0.00 -0.00  1.00 -1.00 -1.00 -1.00 -0.33 -0.33  0.33
12471151 -1.00 -1.00 -1.00  0.00  1.00 -0.00  0.00 -0.00  1.00 -0.33 -0.33  0.33
1248 864  1.00  0.00  0.00 -1.00 -1.00 -1.00  0.00 -0.00  1.00 -0.33 -0.33  0.33
1249 625  1.00  0.00  0.00  0.00  1.00 -0.00  0.00 -0.00  1.00 -0.33 -0.33 -0.33
1250 578  0.00  1.00 -0.00  1.00  0.00  0.00 -1.00 -1.00 -1.00 -0.33 -0.33 -0.33
1251 195 -1.00 -1.00 -1.00  0.00 -0.00  1.00  0.00  1.00 -0.00 -0.33 -0.33 -0.33
1252 484  0.00 -0.00  1.00 -1.00 -1.00 -1.00  1.00  0.00  0.00 -0.33 -0.33 -0.33
1253 630  0.00 -0.00  1.00  1.00  0.00  0.00  0.00  1.00 -0.00 -0.33 -0.33 -0.33
1254 629  0.00  1.00 -0.00  0.00 -0.00  1.00  1.00  0.00  0.00 -0.33 -0.33 -0.33
1255 488  1.00  0.00  0.00  0.00 -0.00  1.00 -1.00 -1.00 -1.00 -0.33 -0.33 -0.33
1256 583  1.00  0.00  0.00 -1.00 -1.00 -1.00  0.00  1.00 -0.00 -0.33 -0.33 -0.33
1257 586 -1.00 -1.00 -1.00  0.00  1.00 -0.00  1.00  0.00  0.00 -0.33 -0.33 -0.33
1258 201  0.00 -0.00  1.00  0.00  1.00 -0.00 -1.00 -1.00 -1.00 -0.33 -0.33 -0.33
1259 204  0.00  1.00 -0.00 -1.00 -1.00 -1.00  0.00 -0.00  1.00 -0.33 -0.33 -0.33
1260 491 -1.00 -1.00 -1.00  1.00  0.00  0.00  0.00 -0.00  1.00 -0.33 -0.33 -0.33
12611261  0.00 -1.00  0.00 -1.00 -0.00 -0.00  0.00  0.00 -1.00 -0.33 -0.33 -0.33
12621166 -1.00 -0.00 -0.00  0.00 -1.00  0.00  1.00  1.00  1.00 -0.33 -0.33 -0.33
1263 400  0.00  0.00 -1.00  1.00  1.00  1.00  0.00 -1.00  0.00 -0.33 -0.33 -0.33
1264 975  1.00  1.00  1.00  0.00  0.00 -1.00 -1.00 -0.00 -0.00 -0.33 -0.33 -0.33
12651265 -1.00 -0.00 -0.00  0.00  0.00 -1.00  0.00 -1.00  0.00 -0.33 -0.33 -0.33
12661266  0.00  0.00 -1.00  0.00 -1.00  0.00 -1.00 -0.00 -0.00 -0.33 -0.33 -0.33
1267 981  0.00  0.00 -1.00 -1.00 -0.00 -0.00  1.00  1.00  1.00 -0.33 -0.33 -0.33
12681174  1.00  1.00  1.00 -1.00 -0.00 -0.00  0.00 -1.00  0.00 -0.33 -0.33 -0.33
12691171  0.00 -1.00  0.00  1.00  1.00  1.00 -1.00 -0.00 -0.00 -0.33 -0.33 -0.33
1270 404  0.00 -1.00  0.00  0.00  0.00 -1.00  1.00  1.00  1.00 -0.33 -0.33 -0.33
1271 407  1.00  1.00  1.00  0.00 -1.00  0.00  0.00  0.00 -1.00 -0.33 -0.33 -0.33
1272 984 -1.00 -0.00 -0.00  1.00  1.00  1.00  0.00  0.00 -1.00 -0.33 -0.33 -0.33
12731273 -1.00 -0.00 -0.00  0.00 -1.00  0.00  0.00  0.00 -1.00 -0.33 -0.33 -0.33
12741178  0.00 -1.00  0.00 -1.00 -0.00 -0.00  1.00  1.00  1.00 -0.33 -0.33 -0.33
1275 411  1.00  1.00  1.00  0.00  0.00 -1.00  0.00 -1.00  0.00 -0.33 -0.33 -0.33
1276 988  0.00  0.00 -1.00  1.00  1.00  1.00 -1.00 -0.00 -0.00 -0.33 -0.33 -0.33
12771278  0.00  0.00 -1.00 -1.00 -0.00 -0.00  0.00 -1.00  0.00 -0.33 -0.33 -0.33
12781277  0.00 -1.00  0.00  0.00  0.00 -1.00 -1.00 -0.00 -0.00 -0.33 -0.33 -0.33
1279 992 -1.00 -0.00 -0.00  0.00  0.00 -1.00  1.00  1.00  1.00 -0.33 -0.33 -0.33
12801183 -1.00 -0.00 -0.00  1.00  1.00  1.00  0.00 -1.00  0.00 -0.33 -0.33 -0.33
12811186  1.00  1.00  1.00  0.00 -1.00  0.00 -1.00 -0.00 -0.00 -0.33 -0.33 -0.33
1282 417  0.00  0.00 -1.00  0.00 -1.00  0.00  1.00  1.00  1.00 -0.33 -0.33 -0.33
1283 420  0.00 -1.00  0.00  1.00  1.00  1.00  0.00  0.00 -1.00 -0.33 -0.33 -0.33
1284 995  1.00  1.00  1.00 -1.00 -0.00 -0.00  0.00  0.00 -1.00 -0.33 -0.33 -0.33
1285 661  0.00  1.00 -0.00  1.00  0.00  0.00  0.00 -0.00  1.00 -0.33 -0.33 -0.33
1286 614  1.00  0.00  0.00  0.00  1.00 -0.00 -1.00 -1.00 -1.00 -0.33 -0.33 -0.33
1287 232  0.00 -0.00  1.00 -1.00 -1.00 -1.00  0.00  1.00 -0.00 -0.33 -0.33 -0.33
1288 519 -1.00 -1.00 -1.00  0.00 -0.00  1.00  1.00  0.00  0.00 -0.33 -0.33 -0.33
1289 665  1.00  0.00  0.00  0.00 -0.00  1.00  0.00  1.00 -0.00 -0.33 -0.33 -0.33
1290 666  0.00 -0.00  1.00  0.00  1.00 -0.00  1.00  0.00  0.00 -0.33 -0.33 -0.33
1291 525  0.00 -0.00  1.00  1.00  0.00  0.00 -1.00 -1.00 -1.00 -0.33 -0.33 -0.33
1292 622 -1.00 -1.00 -1.00  1.00  0.00  0.00  0.00  1.00 -0.00 -0.33 -0.33 -0.33
1293 619  0.00  1.00 -0.00 -1.00 -1.00 -1.00  1.00  0.00  0.00 -0.33 -0.33 -0.33
1294 236  0.00  1.00 -0.00  0.00 -0.00  1.00 -1.00 -1.00 -1.00 -0.33 -0.33 -0.33
1295 239 -1.00 -1.00 -1.00  0.00  1.00 -0.00  0.00 -0.00  1.00 -0.33 -0.33 -0.33
1296 528  1.00  0.00  0.00 -1.00 -1.00 -1.00  0.00 -0.00  1.00 -0.33 -0.33 -0.33

 DIRECT LATTICE VECTORS CARTESIAN COMPONENTS (ANGSTROM)
          X                    Y                    Z
   0.000000000000E+00   0.725725819500E+01   0.725725819500E+01
   0.725725819500E+01   0.000000000000E+00   0.725725819500E+01
   0.725725819500E+01   0.725725819500E+01   0.000000000000E+00


 CARTESIAN COORDINATES - PRIMITIVE CELL
 *******************************************************************************
 *      ATOM          X(ANGSTROM)         Y(ANGSTROM)         Z(ANGSTROM)
 *******************************************************************************
    1    20 CA    0.000000000000E+00  0.000000000000E+00  0.000000000000E+00
    2    20 CA    2.419086065000E+00  2.419086065000E+00  0.000000000000E+00
    3    20 CA   -2.419086065000E+00 -2.419086065000E+00  0.000000000000E+00
    4    20 CA    2.419086065000E+00  0.000000000000E+00  2.419086065000E+00
    5    20 CA    4.838172130000E+00  2.419086065000E+00  2.419086065000E+00
    6    20 CA    1.332267629550E-15 -2.419086065000E+00  2.419086065000E+00
    7    20 CA   -2.419086065000E+00  0.000000000000E+00 -2.419086065000E+00
    8    20 CA    8.881784197001E-16  2.419086065000E+00 -2.419086065000E+00
    9    20 CA   -4.838172130000E+00 -2.419086065000E+00 -2.419086065000E+00
   10    20 CA    0.000000000000E+00  2.419086065000E+00  2.419086065000E+00
   11    20 CA    2.419086065000E+00  4.838172130000E+00  2.419086065000E+00
   12    20 CA   -2.419086065000E+00  1.332267629550E-15  2.419086065000E+00
   13    20 CA    2.419086065000E+00  2.419086065000E+00  4.838172130000E+00
   14    20 CA    4.838172130000E+00  4.838172130000E+00  4.838172130000E+00
   15    20 CA    1.776356839400E-15  1.776356839400E-15  4.838172130000E+00
   16    20 CA   -2.419086065000E+00  2.419086065000E+00  1.332267629550E-15
   17    20 CA    1.776356839400E-15  4.838172130000E+00  1.776356839400E-15
   18    20 CA   -4.838172130000E+00  2.220446049250E-15  1.332267629550E-15
   19    20 CA    0.000000000000E+00 -2.419086065000E+00 -2.419086065000E+00
   20    20 CA    2.419086065000E+00  8.881784197001E-16 -2.419086065000E+00
   21    20 CA   -2.419086065000E+00 -4.838172130000E+00 -2.419086065000E+00
   22    20 CA    2.419086065000E+00 -2.419086065000E+00  1.332267629550E-15
   23    20 CA    4.838172130000E+00  1.776356839400E-15  1.776356839400E-15
   24    20 CA    2.220446049250E-15 -4.838172130000E+00  1.332267629550E-15
   25    20 CA   -2.419086065000E+00 -2.419086065000E+00 -4.838172130000E+00
   26    20 CA    1.332267629550E-15  1.332267629550E-15 -4.838172130000E+00
   27    20 CA   -4.838172130000E+00 -4.838172130000E+00 -4.838172130000E+00
   28     8 O     2.419086065000E+00  2.419086065000E+00  2.419086065000E+00
   29     8 O    -2.419086065000E+00 -2.419086065000E+00  2.419086065000E+00
   30     8 O     1.332267629550E-15  1.332267629550E-15  2.419086065000E+00
   31     8 O    -2.419086065000E+00  2.419086065000E+00 -2.419086065000E+00
   32     8 O    -7.257258195000E+00 -2.419086065000E+00 -2.419086065000E+00
   33     8 O    -4.838172130000E+00  2.220446049250E-15 -2.419086065000E+00
   34     8 O     8.881784197001E-16  2.419086065000E+00  1.332267629550E-15
   35     8 O     2.419086065000E+00  4.838172130000E+00  1.554312234475E-15
   36     8 O    -2.419086065000E+00  6.661338147751E-16  1.554312234475E-15
   37     8 O     2.419086065000E+00 -2.419086065000E+00 -2.419086065000E+00
   38     8 O    -2.419086065000E+00 -7.257258195000E+00 -2.419086065000E+00
   39     8 O     2.220446049250E-15 -4.838172130000E+00 -2.419086065000E+00
   40     8 O    -2.419086065000E+00 -2.419086065000E+00 -7.257258195000E+00
   41     8 O    -7.257258195000E+00 -7.257258195000E+00 -7.257258195000E+00
   42     8 O    -4.838172130000E+00 -4.838172130000E+00 -7.257258195000E+00
   43     8 O     1.554312234475E-15 -2.419086065000E+00 -4.838172130000E+00
   44     8 O    -4.838172130000E+00 -7.257258195000E+00 -4.838172130000E+00
   45     8 O    -2.419086065000E+00 -4.838172130000E+00 -4.838172130000E+00
   46     8 O     2.419086065000E+00  8.881784197001E-16  1.332267629550E-15
   47     8 O     4.838172130000E+00  2.419086065000E+00  1.554312234475E-15
   48     8 O     6.661338147751E-16 -2.419086065000E+00  1.554312234475E-15
   49     8 O    -2.419086065000E+00  1.554312234475E-15 -4.838172130000E+00
   50     8 O    -7.257258195000E+00 -4.838172130000E+00 -4.838172130000E+00
   51     8 O    -4.838172130000E+00 -2.419086065000E+00 -4.838172130000E+00
   52     8 O     1.554312234475E-15  1.554312234475E-15 -2.419086065000E+00
   53     8 O    -4.838172130000E+00 -4.838172130000E+00 -2.419086065000E+00
   54     8 O    -2.419086065000E+00 -2.419086065000E+00 -2.419086065000E+00


 *********************************************************************
 * ***************************************************************** *
 * *                                                               * *
 * *       TREATMENT OF DISORDERED SYSTEMS / SOLID SOLUTIONS       * *
 * *                   USING GROUP ACTION THEORY                   * *
 * *                                                               * *
 * *  1. INTERACTION LIST (OPTIONAL)                               * *
 * *  2. CONFIGURATION ANALYSIS                                    * *
 * *                                                               * *
 * *  S. Mustapha, Ph. D'Arco, M. De La Pierre, Y. Noel,           * *
 * *  M. Ferrabone, R. Dovesi,                                     * *
 * *  On the use of symmetry in configurational analysis for the   * *
 * *  simulation of disordered solids                              * *
 * *  J. Phys.: Condens. Matter 25, 105401 (2013)                  * *
 * *                                                               * *
 * ***************************************************************** *
 *********************************************************************


 GCALCO - MAX INDICES DIRECT LATTICE VECTOR    14    14    14
 NO.OF VECTORS CREATED 6999 STARS  105 RMAX   108.61669 BOHR

 ===============================================================================
                             CONFIGURATION ANALYSIS

  NUMBER OF SUBSTITUTING SPECIES :         2

  TOTAL NUMBER OF ACTIVE SITES :          27
  NUMBER OF SYMMETRY IRREDUCIBLE
  ACTIVE SITES :                           1
  LABELS OF SYMMETRY IRREDUCIBLE
  ACTIVE SITES IN UNIT CELL :              1

  TOTAL NUMBER OF SYMMETRY INDEPENDENT
  CLASSES (POLYA'S THEOREM) :         111618
  NUMBER OF COMPOSITIONS :                28
  COMPOSITION   N. OF CA ATOMS   N. OF CLASSES
       100.00               27               1
        96.30               26               1
        92.59               25               3
        88.89               24              10
        85.19               23              34
        81.48               22             105
        77.78               21             321
        74.07               20             846
        70.37               19            1984
        66.67               18            4023
        62.96               17            7074
        59.26               16           10770
        55.56               15           14253
        51.85               14           16384
        48.15               13           16384
        44.44               12           14253
        40.74               11           10770
        37.04               10            7074
        33.33                9            4023
        29.63                8            1984
        25.93                7             846
        22.22                6             321
        18.52                5             105
        14.81                4              34
        11.11                3              10
         7.41                2               3
         3.70                1               1
         0.00                0               1
  COMPOSITIONS 100.00 AND 0.00 CORRESPOND TO PURE COMPOUNDS AND ARE ALSO CALLED
  END MEMBERS
 ===============================================================================
 COMPOSITION 24 CA OVER 27       N. OF CLASSES :           10
 ===============================================================================
  CLASS :            1     MULTIPLICITY :  54     N. OF SYMM. OP. :  24
  CA   4   5   6   7   8   9  10  11  12  13  14  15  16  17  18  19  20  21  22  23  24  25  26  27
  ------------------------------------------------------------------------------
  XX   1   2   3 
   WARNING : THIS CONFIG CAN BE OBTAINED WITH A SMALLER CELL
 <><><><><><><><><><><><><><><><><><><><><><><><><><><><><><><><><><><>
  CLASS :            2     MULTIPLICITY : 216     N. OF SYMM. OP. :   6
  CA   3   5   6   7   8   9  10  11  12  13  14  15  16  17  18  19  20  21  22  23  24  25  26  27
  ------------------------------------------------------------------------------
  XX   1   2   4 
 <><><><><><><><><><><><><><><><><><><><><><><><><><><><><><><><><><><>
  CLASS :            3     MULTIPLICITY : 648     N. OF SYMM. OP. :   2
  CA   3   4   6   7   8   9  10  11  12  13  14  15  16  17  18  19  20  21  22  23  24  25  26  27
  ------------------------------------------------------------------------------
  XX   1   2   5 
 <><><><><><><><><><><><><><><><><><><><><><><><><><><><><><><><><><><>
  CLASS :            4     MULTIPLICITY : 648     N. OF SYMM. OP. :   2
  CA   3   4   5   6   7   8   9  10  11  12  14  15  16  17  18  19  20  21  22  23  24  25  26  27
  ------------------------------------------------------------------------------
  XX   1   2  13 
 <><><><><><><><><><><><><><><><><><><><><><><><><><><><><><><><><><><>
  CLASS :            5     MULTIPLICITY : 324     N. OF SYMM. OP. :   4
  CA   3   4   5   6   7   8   9  10  11  12  13  15  16  17  18  19  20  21  22  23  24  25  26  27
  ------------------------------------------------------------------------------
  XX   1   2  14 
 <><><><><><><><><><><><><><><><><><><><><><><><><><><><><><><><><><><>
  CLASS :            6     MULTIPLICITY : 324     N. OF SYMM. OP. :   4
  CA   3   4   5   6   7   8   9  10  11  12  13  14  15  17  18  19  20  21  22  23  24  25  26  27
  ------------------------------------------------------------------------------
  XX   1   2  16 
 <><><><><><><><><><><><><><><><><><><><><><><><><><><><><><><><><><><>
  CLASS :            7     MULTIPLICITY : 324     N. OF SYMM. OP. :   4
  CA   3   4   5   6   7   8   9  10  11  12  13  14  15  16  17  19  20  21  22  23  24  25  26  27
  ------------------------------------------------------------------------------
  XX   1   2  18 
 <><><><><><><><><><><><><><><><><><><><><><><><><><><><><><><><><><><>
  CLASS :            8     MULTIPLICITY :  36     N. OF SYMM. OP. :  36
  CA   2   3   4   6   7   8  10  11  12  13  14  15  16  17  18  19  20  21  22  23  24  25  26  27
  ------------------------------------------------------------------------------
  XX   1   5   9 
   WARNING : THIS CONFIG CAN BE OBTAINED WITH A SMALLER CELL
 <><><><><><><><><><><><><><><><><><><><><><><><><><><><><><><><><><><>
  CLASS :            9     MULTIPLICITY : 324     N. OF SYMM. OP. :   4
  CA   2   3   4   6   7   8   9  10  11  12  13  14  16  17  18  19  20  21  22  23  24  25  26  27
  ------------------------------------------------------------------------------
  XX   1   5  15 
 <><><><><><><><><><><><><><><><><><><><><><><><><><><><><><><><><><><>
  CLASS :           10     MULTIPLICITY :  27     N. OF SYMM. OP. :  48
  CA   2   3   4   5   6   7   8   9  10  11  12  13  14  16  17  18  19  20  21  22  23  24  25  27
  ------------------------------------------------------------------------------
  XX   1  15  26 
   WARNING : THIS CONFIG CAN BE OBTAINED WITH A SMALLER CELL
 ===============================================================================
 INFORMATION **** CONFCOUNT **** CALCULATION COMPLETE
 TTTTTTTTTTTTTTTTTTTTTTTTTTTTTT END         TELAPSE        1.88 TCPU        1.87
 EEEEEEEEEE TERMINATION  DATE 13 01 2023 TIME 16:28:05.9
Fri 13 Jan 2023 16:28:05 GMT
Contents of temporary directory:
total 0
SCF abnormal end - no wf written in fort.9
temporary directory /Users/brunocamino/crystal/tmp removed
