date Tue 31 Jan 2023 18:27:14 GMT
hostname eduroam-int-dhcp-97-208-97.ucl.ac.uk
system Darwin eduroam-int-dhcp-97-208-97.ucl.ac.uk 21.6.0 Darwin Kernel Version 21.6.0: Mon Aug 22 20:20:05 PDT 2022; root:xnu-8020.140.49~2/RELEASE_ARM64_T8101 arm64
user brunocamino
output data in /Users/brunocamino/Desktop/Imperial/cmsg_icl/solid-solutions/data/crystal/cao_confrand.out
crystal executable in /Users/brunocamino/crystal
input data in /Users/brunocamino/Desktop/Imperial/cmsg_icl/solid-solutions/data/crystal/cao_confrand.d12
temporary directory /Users/brunocamino/crystal/tmp
TEST11 - MGO BULK
CRYSTAL
0 0 0
225
4.83817213
2
20 0.    0.    0.
8 0.5   0.5   0.5
SUPERCEL
-1 1 1
1 -1 1
1 1 -1
SCELCONF
3 0 0 
0 3 0
0 0 3
CONFRAND
1
1
1 
END
END

         
 *******************************************************************************
 *                                                                             *
 *                               CRYSTAL17                                     *
 *                      public : 1.0.1 - Feb 1st, 2017                         *
 *                       HTTP://WWW.CRYSTAL.UNITO.IT                           *
 *                                                                             *
 *                              MAIN AUTHORS                                   *
 *                                                                             *
 *  R. DOVESI(1,11), V.R. SAUNDERS(2), C. ROETTI(1,11), R. ORLANDO(1,11),      *
 *  C.M. ZICOVICH-WILSON(1,3), F. PASCALE(4), B. CIVALLERI(1,11),              *
 *  K. DOLL(5), N.M. HARRISON(2,6), I.J. BUSH(7), Ph. D'ARCO(8),               *
 *  M. LLUNELL(9), M. CAUSA'(10), Y. NOEL(8), L. MASCHIO(1,11), A. ERBA(1,11)  *
 *  M. RE'RAT(14), S. CASASSA(1,11)                                            *
 *                                                                             *
 *        CONTRIBUTIONS TO THE CODE HAVE ALSO BEEN GIVEN BY                    *
 *                                                                             *
 *  M. FERRABONE(1,11), M. DE LA PIERRE(1,11), M. FERRERO(1,11),               *
 *  J. BAIMA(1,11), E. ALBANESE(1,11), M.F. PEINTINGER(12), R. BAST(13),       *
 *  B. KIRTMAN(15), V. LACIVITA(1,11), R. DEMICHELIS(1,16)                     *
 *  G. BRANDEBURG(17), S. SALUSTRO(1,11), G. SANSONE(1,11)                     *
 *  M.T. RUGGIERO(18)                                                          *
 *                                                                             *
 * (1) THEORETICAL CHEMISTRY GROUP - UNIVERSITA' DI TORINO - TORINO (ITALY)    *

 * (2) COMPUTATIONAL SCIENCE & ENGINEERING DEPARTMENT - STFC DARESBURY (UK)    *
 * (3) UNIVERSIDAD AUTONOMA DEL ESTADO DE MORELOS - CUERNAVACA (MEXICO)        *
 * (4) UNIVERSITE' DE LORRAINE - NANCY (FRANCE)                                *
 * (5) UNIVERSITAET STUTTGART- STUTTGART (GERMANY)                             *
 * (6) IMPERIAL COLLEGE - LONDON (UK)                                          *
 * (7) OXFORD E-RESEARCH CENTRE - OXFORD (UK)                                  *
 * (8) UPMC - SORBONNE UNIVERSITES - PARIS (FRANCE)                            *
 * (9) UNIVERSIDAD DE BARCELONA - BARCELONA (SPAIN)                            *
 *(10) UNIVERSITA' DI NAPOLI "FEDERICO II" - NAPOLI (ITALY)                    *
 *(11) NIS - NANOSTRUCTURED INTERFACES AND SURFACES - TORINO (ITALY)           *
 *(12) MPI FUER CHEMISCHE ENERGIEKONVERSION - MUELHEIM AN DER RUHR (GERMANY)   *
 *(13) UNIVERSITY OF TROMSO - TROMSO (NORWAY)                                  *
 *(14) UNIVERSITE' DE PAU ET DES PAYS DE L'ADOUR - PAU (FRANCE)                *
 *(15) UNIVERSITY OF CALIFORNIA SANTA BARBARA - SANTA BARBARA (USA)            *
 *(16) CURTIN UNIVERSITY - PERTH (AUSTRALIA)                                   *
 *(17) UNIVERSITY COLLEGE LONDON - LONDON (UK)                                 *
 *(18) CAMBRIDGE UNIVERSITY - CAMBRIDGE (UK)                                   *
 *                                                                             *
 *******************************************************************************
 EEEEEEEEEE STARTING  DATE 31 01 2023 TIME 18:27:14.4
 TEST11 - MGO BULK                                                               

 CRYSTAL CALCULATION
 (INPUT ACCORDING TO THE INTERNATIONAL TABLES FOR X-RAY CRYSTALLOGRAPHY)
 CRYSTAL FAMILY                       :  CUBIC       
 CRYSTAL CLASS  (GROTH - 1921)        :  CUBIC HEXAKISOCTAHEDRAL              

 SPACE GROUP (CENTROSYMMETRIC)        :  F M 3 M         

 LATTICE PARAMETERS  (ANGSTROMS AND DEGREES) - CONVENTIONAL CELL
        A           B           C        ALPHA        BETA       GAMMA
     4.83817     4.83817     4.83817    90.00000    90.00000    90.00000


 NUMBER OF IRREDUCIBLE ATOMS IN THE CONVENTIONAL CELL:    2

 INPUT COORDINATES

 ATOM AT. N.              COORDINATES
   1  20     0.000000000000E+00  0.000000000000E+00  0.000000000000E+00
   2   8     5.000000000000E-01  5.000000000000E-01  5.000000000000E-01

 *******************************************************************************

 << INFORMATION >>: FROM NOW ON, ALL COORDINATES REFER TO THE PRIMITIVE CELL

 *******************************************************************************

 LATTICE PARAMETERS  (ANGSTROMS AND DEGREES) - PRIMITIVE CELL
       A          B          C        ALPHA      BETA     GAMMA        VOLUME
    3.42110    3.42110    3.42110    60.00000  60.00000  60.00000     28.312874

 COORDINATES OF THE EQUIVALENT ATOMS (FRACTIONAL UNITS)

 N. ATOM EQUIV AT. N.          X                  Y                  Z

   1   1   1   20 CA    0.00000000000E+00  0.00000000000E+00  0.00000000000E+00

   2   2   1    8 O    -5.00000000000E-01 -5.00000000000E-01 -5.00000000000E-01

 NUMBER OF SYMMETRY OPERATORS         :   48
 *******************************************************************************
 * GEOMETRY EDITING - INPUT COORDINATES ARE GIVEN IN ANGSTROM         
 *******************************************************************************

 GEOMETRY NOW FULLY CONSISTENT WITH THE GROUP

 NO SYMMOPS WITH FINITE TRANSLATIONAL COMPONENT

 *******************************************************************************
 * SUPERCELL OPTION
 *******************************************************************************


        EXPANSION MATRIX OF PRIMITIVE CELL
 E1    -1.000     1.000     1.000
 E2     1.000    -1.000     1.000
 E3     1.000     1.000    -1.000

 NUMBER OF ATOMS PER SUPERCELL     8

        DIRECT LATTICE VECTORS COMPONENTS (ANGSTROM)
 B1     4.838     0.000     0.000
 B2     0.000     4.838     0.000
 B3     0.000     0.000     4.838

 LATTICE PARAMETERS  (ANGSTROM AND DEGREES)
       A          B          C         ALPHA     BETA     GAMMA        VOLUME
    4.83817    4.83817    4.83817    90.00000  90.00000  90.00000    113.251496


 **** ATOMS BELONGING TO THE SUPERCELL
 LABEL AT.NO.      COORDINATES (ANGSTROM AND FRACTIONAL)
     1    20     0.0000    -0.0000    -0.0000     0.0000    -0.0000    -0.0000
     2    20     2.4191     2.4191    -0.0000     0.5000     0.5000    -0.0000
     3    20     2.4191    -0.0000     2.4191     0.5000    -0.0000     0.5000
     4    20     0.0000     2.4191     2.4191     0.0000     0.5000     0.5000
     5     8     0.0000    -0.0000     2.4191     0.0000    -0.0000     0.5000
     6     8     2.4191     2.4191     2.4191     0.5000     0.5000     0.5000
     7     8     2.4191    -0.0000    -0.0000     0.5000    -0.0000    -0.0000
     8     8     0.0000     2.4191    -0.0000     0.0000     0.5000    -0.0000

 **************************** SUPERCELL GENERATED ****************************

 GCALCO - MAX INDICES DIRECT LATTICE VECTOR    14    14    14
 NO.OF VECTORS CREATED 6999 STARS  120 RMAX    57.45011 BOHR

 *******************************************************************************
 * SUPERCELL OPTION
 *******************************************************************************


        EXPANSION MATRIX OF PRIMITIVE CELL
 E1     3.000     0.000     0.000
 E2     0.000     3.000     0.000
 E3     0.000     0.000     3.000

 NUMBER OF ATOMS PER SUPERCELL   216

        DIRECT LATTICE VECTORS COMPONENTS (ANGSTROM)
 B1    14.515     0.000     0.000
 B2     0.000    14.515     0.000
 B3     0.000     0.000    14.515

 LATTICE PARAMETERS  (ANGSTROM AND DEGREES)
       A          B          C         ALPHA     BETA     GAMMA        VOLUME
   14.51452   14.51452   14.51452    90.00000  90.00000  90.00000   3057.790383


 **** ATOMS BELONGING TO THE SUPERCELL
 LABEL AT.NO.      COORDINATES (ANGSTROM AND FRACTIONAL)
     1    20     0.0000    -0.0000    -0.0000     0.0000    -0.0000    -0.0000
     2    20     0.0000    -0.0000     4.8382     0.0000    -0.0000     0.3333
     3    20     0.0000    -0.0000    -4.8382     0.0000    -0.0000    -0.3333
     4    20     0.0000     4.8382    -0.0000     0.0000     0.3333    -0.0000
     5    20     0.0000     4.8382     4.8382     0.0000     0.3333     0.3333
     6    20     0.0000     4.8382    -4.8382     0.0000     0.3333    -0.3333
     7    20     0.0000    -4.8382    -0.0000     0.0000    -0.3333    -0.0000
     8    20     0.0000    -4.8382     4.8382     0.0000    -0.3333     0.3333
     9    20     0.0000    -4.8382    -4.8382     0.0000    -0.3333    -0.3333
    10    20     4.8382    -0.0000    -0.0000     0.3333    -0.0000    -0.0000
    11    20     4.8382    -0.0000     4.8382     0.3333    -0.0000     0.3333
    12    20     4.8382    -0.0000    -4.8382     0.3333    -0.0000    -0.3333
    13    20     4.8382     4.8382    -0.0000     0.3333     0.3333    -0.0000
    14    20     4.8382     4.8382     4.8382     0.3333     0.3333     0.3333
    15    20     4.8382     4.8382    -4.8382     0.3333     0.3333    -0.3333
    16    20     4.8382    -4.8382    -0.0000     0.3333    -0.3333    -0.0000
    17    20     4.8382    -4.8382     4.8382     0.3333    -0.3333     0.3333
    18    20     4.8382    -4.8382    -4.8382     0.3333    -0.3333    -0.3333
    19    20    -4.8382    -0.0000    -0.0000    -0.3333    -0.0000    -0.0000
    20    20    -4.8382    -0.0000     4.8382    -0.3333    -0.0000     0.3333
    21    20    -4.8382    -0.0000    -4.8382    -0.3333    -0.0000    -0.3333
    22    20    -4.8382     4.8382    -0.0000    -0.3333     0.3333    -0.0000
    23    20    -4.8382     4.8382     4.8382    -0.3333     0.3333     0.3333
    24    20    -4.8382     4.8382    -4.8382    -0.3333     0.3333    -0.3333
    25    20    -4.8382    -4.8382    -0.0000    -0.3333    -0.3333    -0.0000
    26    20    -4.8382    -4.8382     4.8382    -0.3333    -0.3333     0.3333
    27    20    -4.8382    -4.8382    -4.8382    -0.3333    -0.3333    -0.3333
    28    20     2.4191     2.4191    -0.0000     0.1667     0.1667    -0.0000
    29    20     2.4191     2.4191     4.8382     0.1667     0.1667     0.3333
    30    20     2.4191     2.4191    -4.8382     0.1667     0.1667    -0.3333
    31    20     2.4191    -7.2573    -0.0000     0.1667    -0.5000    -0.0000
    32    20     2.4191    -7.2573     4.8382     0.1667    -0.5000     0.3333
    33    20     2.4191    -7.2573    -4.8382     0.1667    -0.5000    -0.3333
    34    20     2.4191    -2.4191    -0.0000     0.1667    -0.1667    -0.0000
    35    20     2.4191    -2.4191     4.8382     0.1667    -0.1667     0.3333
    36    20     2.4191    -2.4191    -4.8382     0.1667    -0.1667    -0.3333
    37    20    -7.2573     2.4191    -0.0000    -0.5000     0.1667    -0.0000
    38    20    -7.2573     2.4191     4.8382    -0.5000     0.1667     0.3333
    39    20    -7.2573     2.4191    -4.8382    -0.5000     0.1667    -0.3333
    40    20    -7.2573    -7.2573    -0.0000    -0.5000    -0.5000    -0.0000
    41    20    -7.2573    -7.2573     4.8382    -0.5000    -0.5000     0.3333
    42    20    -7.2573    -7.2573    -4.8382    -0.5000    -0.5000    -0.3333
    43    20    -7.2573    -2.4191    -0.0000    -0.5000    -0.1667    -0.0000
    44    20    -7.2573    -2.4191     4.8382    -0.5000    -0.1667     0.3333
    45    20    -7.2573    -2.4191    -4.8382    -0.5000    -0.1667    -0.3333
    46    20    -2.4191     2.4191    -0.0000    -0.1667     0.1667    -0.0000
    47    20    -2.4191     2.4191     4.8382    -0.1667     0.1667     0.3333
    48    20    -2.4191     2.4191    -4.8382    -0.1667     0.1667    -0.3333
    49    20    -2.4191    -7.2573    -0.0000    -0.1667    -0.5000    -0.0000
    50    20    -2.4191    -7.2573     4.8382    -0.1667    -0.5000     0.3333
    51    20    -2.4191    -7.2573    -4.8382    -0.1667    -0.5000    -0.3333
    52    20    -2.4191    -2.4191    -0.0000    -0.1667    -0.1667    -0.0000
    53    20    -2.4191    -2.4191     4.8382    -0.1667    -0.1667     0.3333
    54    20    -2.4191    -2.4191    -4.8382    -0.1667    -0.1667    -0.3333
    55    20     2.4191    -0.0000     2.4191     0.1667    -0.0000     0.1667
    56    20     2.4191    -0.0000    -7.2573     0.1667    -0.0000    -0.5000
    57    20     2.4191    -0.0000    -2.4191     0.1667    -0.0000    -0.1667
    58    20     2.4191     4.8382     2.4191     0.1667     0.3333     0.1667
    59    20     2.4191     4.8382    -7.2573     0.1667     0.3333    -0.5000
    60    20     2.4191     4.8382    -2.4191     0.1667     0.3333    -0.1667
    61    20     2.4191    -4.8382     2.4191     0.1667    -0.3333     0.1667
    62    20     2.4191    -4.8382    -7.2573     0.1667    -0.3333    -0.5000
    63    20     2.4191    -4.8382    -2.4191     0.1667    -0.3333    -0.1667
    64    20    -7.2573    -0.0000     2.4191    -0.5000    -0.0000     0.1667
    65    20    -7.2573    -0.0000    -7.2573    -0.5000    -0.0000    -0.5000
    66    20    -7.2573    -0.0000    -2.4191    -0.5000    -0.0000    -0.1667
    67    20    -7.2573     4.8382     2.4191    -0.5000     0.3333     0.1667
    68    20    -7.2573     4.8382    -7.2573    -0.5000     0.3333    -0.5000
    69    20    -7.2573     4.8382    -2.4191    -0.5000     0.3333    -0.1667
    70    20    -7.2573    -4.8382     2.4191    -0.5000    -0.3333     0.1667
    71    20    -7.2573    -4.8382    -7.2573    -0.5000    -0.3333    -0.5000
    72    20    -7.2573    -4.8382    -2.4191    -0.5000    -0.3333    -0.1667
    73    20    -2.4191    -0.0000     2.4191    -0.1667    -0.0000     0.1667
    74    20    -2.4191    -0.0000    -7.2573    -0.1667    -0.0000    -0.5000
    75    20    -2.4191    -0.0000    -2.4191    -0.1667    -0.0000    -0.1667
    76    20    -2.4191     4.8382     2.4191    -0.1667     0.3333     0.1667
    77    20    -2.4191     4.8382    -7.2573    -0.1667     0.3333    -0.5000
    78    20    -2.4191     4.8382    -2.4191    -0.1667     0.3333    -0.1667
    79    20    -2.4191    -4.8382     2.4191    -0.1667    -0.3333     0.1667
    80    20    -2.4191    -4.8382    -7.2573    -0.1667    -0.3333    -0.5000
    81    20    -2.4191    -4.8382    -2.4191    -0.1667    -0.3333    -0.1667
    82    20     0.0000     2.4191     2.4191     0.0000     0.1667     0.1667
    83    20     0.0000     2.4191    -7.2573     0.0000     0.1667    -0.5000
    84    20     0.0000     2.4191    -2.4191     0.0000     0.1667    -0.1667
    85    20     0.0000    -7.2573     2.4191     0.0000    -0.5000     0.1667
    86    20     0.0000    -7.2573    -7.2573     0.0000    -0.5000    -0.5000
    87    20     0.0000    -7.2573    -2.4191     0.0000    -0.5000    -0.1667
    88    20     0.0000    -2.4191     2.4191     0.0000    -0.1667     0.1667
    89    20     0.0000    -2.4191    -7.2573     0.0000    -0.1667    -0.5000
    90    20     0.0000    -2.4191    -2.4191     0.0000    -0.1667    -0.1667
    91    20     4.8382     2.4191     2.4191     0.3333     0.1667     0.1667
    92    20     4.8382     2.4191    -7.2573     0.3333     0.1667    -0.5000
    93    20     4.8382     2.4191    -2.4191     0.3333     0.1667    -0.1667
    94    20     4.8382    -7.2573     2.4191     0.3333    -0.5000     0.1667
    95    20     4.8382    -7.2573    -7.2573     0.3333    -0.5000    -0.5000
    96    20     4.8382    -7.2573    -2.4191     0.3333    -0.5000    -0.1667
    97    20     4.8382    -2.4191     2.4191     0.3333    -0.1667     0.1667
    98    20     4.8382    -2.4191    -7.2573     0.3333    -0.1667    -0.5000
    99    20     4.8382    -2.4191    -2.4191     0.3333    -0.1667    -0.1667
   100    20    -4.8382     2.4191     2.4191    -0.3333     0.1667     0.1667
   101    20    -4.8382     2.4191    -7.2573    -0.3333     0.1667    -0.5000
   102    20    -4.8382     2.4191    -2.4191    -0.3333     0.1667    -0.1667
   103    20    -4.8382    -7.2573     2.4191    -0.3333    -0.5000     0.1667
   104    20    -4.8382    -7.2573    -7.2573    -0.3333    -0.5000    -0.5000
   105    20    -4.8382    -7.2573    -2.4191    -0.3333    -0.5000    -0.1667
   106    20    -4.8382    -2.4191     2.4191    -0.3333    -0.1667     0.1667
   107    20    -4.8382    -2.4191    -7.2573    -0.3333    -0.1667    -0.5000
   108    20    -4.8382    -2.4191    -2.4191    -0.3333    -0.1667    -0.1667
   109     8     0.0000    -0.0000     2.4191     0.0000    -0.0000     0.1667
   110     8     0.0000    -0.0000    -7.2573     0.0000    -0.0000    -0.5000
   111     8     0.0000    -0.0000    -2.4191     0.0000    -0.0000    -0.1667
   112     8     0.0000     4.8382     2.4191     0.0000     0.3333     0.1667
   113     8     0.0000     4.8382    -7.2573     0.0000     0.3333    -0.5000
   114     8     0.0000     4.8382    -2.4191     0.0000     0.3333    -0.1667
   115     8     0.0000    -4.8382     2.4191     0.0000    -0.3333     0.1667
   116     8     0.0000    -4.8382    -7.2573     0.0000    -0.3333    -0.5000
   117     8     0.0000    -4.8382    -2.4191     0.0000    -0.3333    -0.1667
   118     8     4.8382    -0.0000     2.4191     0.3333    -0.0000     0.1667
   119     8     4.8382    -0.0000    -7.2573     0.3333    -0.0000    -0.5000
   120     8     4.8382    -0.0000    -2.4191     0.3333    -0.0000    -0.1667
   121     8     4.8382     4.8382     2.4191     0.3333     0.3333     0.1667
   122     8     4.8382     4.8382    -7.2573     0.3333     0.3333    -0.5000
   123     8     4.8382     4.8382    -2.4191     0.3333     0.3333    -0.1667
   124     8     4.8382    -4.8382     2.4191     0.3333    -0.3333     0.1667
   125     8     4.8382    -4.8382    -7.2573     0.3333    -0.3333    -0.5000
   126     8     4.8382    -4.8382    -2.4191     0.3333    -0.3333    -0.1667
   127     8    -4.8382    -0.0000     2.4191    -0.3333    -0.0000     0.1667
   128     8    -4.8382    -0.0000    -7.2573    -0.3333    -0.0000    -0.5000
   129     8    -4.8382    -0.0000    -2.4191    -0.3333    -0.0000    -0.1667
   130     8    -4.8382     4.8382     2.4191    -0.3333     0.3333     0.1667
   131     8    -4.8382     4.8382    -7.2573    -0.3333     0.3333    -0.5000
   132     8    -4.8382     4.8382    -2.4191    -0.3333     0.3333    -0.1667
   133     8    -4.8382    -4.8382     2.4191    -0.3333    -0.3333     0.1667
   134     8    -4.8382    -4.8382    -7.2573    -0.3333    -0.3333    -0.5000
   135     8    -4.8382    -4.8382    -2.4191    -0.3333    -0.3333    -0.1667
   136     8     2.4191     2.4191     2.4191     0.1667     0.1667     0.1667
   137     8     2.4191     2.4191    -7.2573     0.1667     0.1667    -0.5000
   138     8     2.4191     2.4191    -2.4191     0.1667     0.1667    -0.1667
   139     8     2.4191    -7.2573     2.4191     0.1667    -0.5000     0.1667
   140     8     2.4191    -7.2573    -7.2573     0.1667    -0.5000    -0.5000
   141     8     2.4191    -7.2573    -2.4191     0.1667    -0.5000    -0.1667
   142     8     2.4191    -2.4191     2.4191     0.1667    -0.1667     0.1667
   143     8     2.4191    -2.4191    -7.2573     0.1667    -0.1667    -0.5000
   144     8     2.4191    -2.4191    -2.4191     0.1667    -0.1667    -0.1667
   145     8    -7.2573     2.4191     2.4191    -0.5000     0.1667     0.1667
   146     8    -7.2573     2.4191    -7.2573    -0.5000     0.1667    -0.5000
   147     8    -7.2573     2.4191    -2.4191    -0.5000     0.1667    -0.1667
   148     8    -7.2573    -7.2573     2.4191    -0.5000    -0.5000     0.1667
   149     8    -7.2573    -7.2573    -7.2573    -0.5000    -0.5000    -0.5000
   150     8    -7.2573    -7.2573    -2.4191    -0.5000    -0.5000    -0.1667
   151     8    -7.2573    -2.4191     2.4191    -0.5000    -0.1667     0.1667
   152     8    -7.2573    -2.4191    -7.2573    -0.5000    -0.1667    -0.5000
   153     8    -7.2573    -2.4191    -2.4191    -0.5000    -0.1667    -0.1667
   154     8    -2.4191     2.4191     2.4191    -0.1667     0.1667     0.1667
   155     8    -2.4191     2.4191    -7.2573    -0.1667     0.1667    -0.5000
   156     8    -2.4191     2.4191    -2.4191    -0.1667     0.1667    -0.1667
   157     8    -2.4191    -7.2573     2.4191    -0.1667    -0.5000     0.1667
   158     8    -2.4191    -7.2573    -7.2573    -0.1667    -0.5000    -0.5000
   159     8    -2.4191    -7.2573    -2.4191    -0.1667    -0.5000    -0.1667
   160     8    -2.4191    -2.4191     2.4191    -0.1667    -0.1667     0.1667
   161     8    -2.4191    -2.4191    -7.2573    -0.1667    -0.1667    -0.5000
   162     8    -2.4191    -2.4191    -2.4191    -0.1667    -0.1667    -0.1667
   163     8     2.4191    -0.0000    -0.0000     0.1667    -0.0000    -0.0000
   164     8     2.4191    -0.0000     4.8382     0.1667    -0.0000     0.3333
   165     8     2.4191    -0.0000    -4.8382     0.1667    -0.0000    -0.3333
   166     8     2.4191     4.8382    -0.0000     0.1667     0.3333    -0.0000
   167     8     2.4191     4.8382     4.8382     0.1667     0.3333     0.3333
   168     8     2.4191     4.8382    -4.8382     0.1667     0.3333    -0.3333
   169     8     2.4191    -4.8382    -0.0000     0.1667    -0.3333    -0.0000
   170     8     2.4191    -4.8382     4.8382     0.1667    -0.3333     0.3333
   171     8     2.4191    -4.8382    -4.8382     0.1667    -0.3333    -0.3333
   172     8    -7.2573    -0.0000    -0.0000    -0.5000    -0.0000    -0.0000
   173     8    -7.2573    -0.0000     4.8382    -0.5000    -0.0000     0.3333
   174     8    -7.2573    -0.0000    -4.8382    -0.5000    -0.0000    -0.3333
   175     8    -7.2573     4.8382    -0.0000    -0.5000     0.3333    -0.0000
   176     8    -7.2573     4.8382     4.8382    -0.5000     0.3333     0.3333
   177     8    -7.2573     4.8382    -4.8382    -0.5000     0.3333    -0.3333
   178     8    -7.2573    -4.8382    -0.0000    -0.5000    -0.3333    -0.0000
   179     8    -7.2573    -4.8382     4.8382    -0.5000    -0.3333     0.3333
   180     8    -7.2573    -4.8382    -4.8382    -0.5000    -0.3333    -0.3333
   181     8    -2.4191    -0.0000    -0.0000    -0.1667    -0.0000    -0.0000
   182     8    -2.4191    -0.0000     4.8382    -0.1667    -0.0000     0.3333
   183     8    -2.4191    -0.0000    -4.8382    -0.1667    -0.0000    -0.3333
   184     8    -2.4191     4.8382    -0.0000    -0.1667     0.3333    -0.0000
   185     8    -2.4191     4.8382     4.8382    -0.1667     0.3333     0.3333
   186     8    -2.4191     4.8382    -4.8382    -0.1667     0.3333    -0.3333
   187     8    -2.4191    -4.8382    -0.0000    -0.1667    -0.3333    -0.0000
   188     8    -2.4191    -4.8382     4.8382    -0.1667    -0.3333     0.3333
   189     8    -2.4191    -4.8382    -4.8382    -0.1667    -0.3333    -0.3333
   190     8     0.0000     2.4191    -0.0000     0.0000     0.1667    -0.0000
   191     8     0.0000     2.4191     4.8382     0.0000     0.1667     0.3333
   192     8     0.0000     2.4191    -4.8382     0.0000     0.1667    -0.3333
   193     8     0.0000    -7.2573    -0.0000     0.0000    -0.5000    -0.0000
   194     8     0.0000    -7.2573     4.8382     0.0000    -0.5000     0.3333
   195     8     0.0000    -7.2573    -4.8382     0.0000    -0.5000    -0.3333
   196     8     0.0000    -2.4191    -0.0000     0.0000    -0.1667    -0.0000
   197     8     0.0000    -2.4191     4.8382     0.0000    -0.1667     0.3333
   198     8     0.0000    -2.4191    -4.8382     0.0000    -0.1667    -0.3333
   199     8     4.8382     2.4191    -0.0000     0.3333     0.1667    -0.0000
   200     8     4.8382     2.4191     4.8382     0.3333     0.1667     0.3333
   201     8     4.8382     2.4191    -4.8382     0.3333     0.1667    -0.3333
   202     8     4.8382    -7.2573    -0.0000     0.3333    -0.5000    -0.0000
   203     8     4.8382    -7.2573     4.8382     0.3333    -0.5000     0.3333
   204     8     4.8382    -7.2573    -4.8382     0.3333    -0.5000    -0.3333
   205     8     4.8382    -2.4191    -0.0000     0.3333    -0.1667    -0.0000
   206     8     4.8382    -2.4191     4.8382     0.3333    -0.1667     0.3333
   207     8     4.8382    -2.4191    -4.8382     0.3333    -0.1667    -0.3333
   208     8    -4.8382     2.4191    -0.0000    -0.3333     0.1667    -0.0000
   209     8    -4.8382     2.4191     4.8382    -0.3333     0.1667     0.3333
   210     8    -4.8382     2.4191    -4.8382    -0.3333     0.1667    -0.3333
   211     8    -4.8382    -7.2573    -0.0000    -0.3333    -0.5000    -0.0000
   212     8    -4.8382    -7.2573     4.8382    -0.3333    -0.5000     0.3333
   213     8    -4.8382    -7.2573    -4.8382    -0.3333    -0.5000    -0.3333
   214     8    -4.8382    -2.4191    -0.0000    -0.3333    -0.1667    -0.0000
   215     8    -4.8382    -2.4191     4.8382    -0.3333    -0.1667     0.3333
   216     8    -4.8382    -2.4191    -4.8382    -0.3333    -0.1667    -0.3333

 **************************** SUPERCELL GENERATED ****************************

 CONSTRUCTION OF SUPERCELL PRODUCT GROUP


     SUPERCELL MATRIX

  3.00000 0.00000 0.00000
  0.00000 3.00000 0.00000
  0.00000 0.00000 3.00000


     INVERSE SUPERCELL MATRIX

  0.33333 0.00000 0.00000
  0.00000 0.33333 0.00000
  0.00000 0.00000 0.33333


 LABEL AT.NO.      COORDINATES (ANGSTROM)
     1    20     0.0000    -0.0000    -0.0000
     2    20     0.0000    -0.0000     4.8382
     3    20     0.0000    -0.0000    -4.8382
     4    20     0.0000     4.8382    -0.0000
     5    20     0.0000     4.8382     4.8382
     6    20     0.0000     4.8382    -4.8382
     7    20     0.0000    -4.8382    -0.0000
     8    20     0.0000    -4.8382     4.8382
     9    20     0.0000    -4.8382    -4.8382
    10    20     4.8382    -0.0000    -0.0000
    11    20     4.8382    -0.0000     4.8382
    12    20     4.8382    -0.0000    -4.8382
    13    20     4.8382     4.8382    -0.0000
    14    20     4.8382     4.8382     4.8382
    15    20     4.8382     4.8382    -4.8382
    16    20     4.8382    -4.8382    -0.0000
    17    20     4.8382    -4.8382     4.8382
    18    20     4.8382    -4.8382    -4.8382
    19    20    -4.8382    -0.0000    -0.0000
    20    20    -4.8382    -0.0000     4.8382
    21    20    -4.8382    -0.0000    -4.8382
    22    20    -4.8382     4.8382    -0.0000
    23    20    -4.8382     4.8382     4.8382
    24    20    -4.8382     4.8382    -4.8382
    25    20    -4.8382    -4.8382    -0.0000
    26    20    -4.8382    -4.8382     4.8382
    27    20    -4.8382    -4.8382    -4.8382
    28    20     2.4191     2.4191    -0.0000
    29    20     2.4191     2.4191     4.8382
    30    20     2.4191     2.4191    -4.8382
    31    20     2.4191    -7.2573    -0.0000
    32    20     2.4191    -7.2573     4.8382
    33    20     2.4191    -7.2573    -4.8382
    34    20     2.4191    -2.4191    -0.0000
    35    20     2.4191    -2.4191     4.8382
    36    20     2.4191    -2.4191    -4.8382
    37    20    -7.2573     2.4191    -0.0000
    38    20    -7.2573     2.4191     4.8382
    39    20    -7.2573     2.4191    -4.8382
    40    20    -7.2573    -7.2573    -0.0000
    41    20    -7.2573    -7.2573     4.8382
    42    20    -7.2573    -7.2573    -4.8382
    43    20    -7.2573    -2.4191    -0.0000
    44    20    -7.2573    -2.4191     4.8382
    45    20    -7.2573    -2.4191    -4.8382
    46    20    -2.4191     2.4191    -0.0000
    47    20    -2.4191     2.4191     4.8382
    48    20    -2.4191     2.4191    -4.8382
    49    20    -2.4191    -7.2573    -0.0000
    50    20    -2.4191    -7.2573     4.8382
    51    20    -2.4191    -7.2573    -4.8382
    52    20    -2.4191    -2.4191    -0.0000
    53    20    -2.4191    -2.4191     4.8382
    54    20    -2.4191    -2.4191    -4.8382
    55    20     2.4191    -0.0000     2.4191
    56    20     2.4191    -0.0000    -7.2573
    57    20     2.4191    -0.0000    -2.4191
    58    20     2.4191     4.8382     2.4191
    59    20     2.4191     4.8382    -7.2573
    60    20     2.4191     4.8382    -2.4191
    61    20     2.4191    -4.8382     2.4191
    62    20     2.4191    -4.8382    -7.2573
    63    20     2.4191    -4.8382    -2.4191
    64    20    -7.2573    -0.0000     2.4191
    65    20    -7.2573    -0.0000    -7.2573
    66    20    -7.2573    -0.0000    -2.4191
    67    20    -7.2573     4.8382     2.4191
    68    20    -7.2573     4.8382    -7.2573
    69    20    -7.2573     4.8382    -2.4191
    70    20    -7.2573    -4.8382     2.4191
    71    20    -7.2573    -4.8382    -7.2573
    72    20    -7.2573    -4.8382    -2.4191
    73    20    -2.4191    -0.0000     2.4191
    74    20    -2.4191    -0.0000    -7.2573
    75    20    -2.4191    -0.0000    -2.4191
    76    20    -2.4191     4.8382     2.4191
    77    20    -2.4191     4.8382    -7.2573
    78    20    -2.4191     4.8382    -2.4191
    79    20    -2.4191    -4.8382     2.4191
    80    20    -2.4191    -4.8382    -7.2573
    81    20    -2.4191    -4.8382    -2.4191
    82    20     0.0000     2.4191     2.4191
    83    20     0.0000     2.4191    -7.2573
    84    20     0.0000     2.4191    -2.4191
    85    20     0.0000    -7.2573     2.4191
    86    20     0.0000    -7.2573    -7.2573
    87    20     0.0000    -7.2573    -2.4191
    88    20     0.0000    -2.4191     2.4191
    89    20     0.0000    -2.4191    -7.2573
    90    20     0.0000    -2.4191    -2.4191
    91    20     4.8382     2.4191     2.4191
    92    20     4.8382     2.4191    -7.2573
    93    20     4.8382     2.4191    -2.4191
    94    20     4.8382    -7.2573     2.4191
    95    20     4.8382    -7.2573    -7.2573
    96    20     4.8382    -7.2573    -2.4191
    97    20     4.8382    -2.4191     2.4191
    98    20     4.8382    -2.4191    -7.2573
    99    20     4.8382    -2.4191    -2.4191
   100    20    -4.8382     2.4191     2.4191
   101    20    -4.8382     2.4191    -7.2573
   102    20    -4.8382     2.4191    -2.4191
   103    20    -4.8382    -7.2573     2.4191
   104    20    -4.8382    -7.2573    -7.2573
   105    20    -4.8382    -7.2573    -2.4191
   106    20    -4.8382    -2.4191     2.4191
   107    20    -4.8382    -2.4191    -7.2573
   108    20    -4.8382    -2.4191    -2.4191
   109     8     0.0000    -0.0000     2.4191
   110     8     0.0000    -0.0000    -7.2573
   111     8     0.0000    -0.0000    -2.4191
   112     8     0.0000     4.8382     2.4191
   113     8     0.0000     4.8382    -7.2573
   114     8     0.0000     4.8382    -2.4191
   115     8     0.0000    -4.8382     2.4191
   116     8     0.0000    -4.8382    -7.2573
   117     8     0.0000    -4.8382    -2.4191
   118     8     4.8382    -0.0000     2.4191
   119     8     4.8382    -0.0000    -7.2573
   120     8     4.8382    -0.0000    -2.4191
   121     8     4.8382     4.8382     2.4191
   122     8     4.8382     4.8382    -7.2573
   123     8     4.8382     4.8382    -2.4191
   124     8     4.8382    -4.8382     2.4191
   125     8     4.8382    -4.8382    -7.2573
   126     8     4.8382    -4.8382    -2.4191
   127     8    -4.8382    -0.0000     2.4191
   128     8    -4.8382    -0.0000    -7.2573
   129     8    -4.8382    -0.0000    -2.4191
   130     8    -4.8382     4.8382     2.4191
   131     8    -4.8382     4.8382    -7.2573
   132     8    -4.8382     4.8382    -2.4191
   133     8    -4.8382    -4.8382     2.4191
   134     8    -4.8382    -4.8382    -7.2573
   135     8    -4.8382    -4.8382    -2.4191
   136     8     2.4191     2.4191     2.4191
   137     8     2.4191     2.4191    -7.2573
   138     8     2.4191     2.4191    -2.4191
   139     8     2.4191    -7.2573     2.4191
   140     8     2.4191    -7.2573    -7.2573
   141     8     2.4191    -7.2573    -2.4191
   142     8     2.4191    -2.4191     2.4191
   143     8     2.4191    -2.4191    -7.2573
   144     8     2.4191    -2.4191    -2.4191
   145     8    -7.2573     2.4191     2.4191
   146     8    -7.2573     2.4191    -7.2573
   147     8    -7.2573     2.4191    -2.4191
   148     8    -7.2573    -7.2573     2.4191
   149     8    -7.2573    -7.2573    -7.2573
   150     8    -7.2573    -7.2573    -2.4191
   151     8    -7.2573    -2.4191     2.4191
   152     8    -7.2573    -2.4191    -7.2573
   153     8    -7.2573    -2.4191    -2.4191
   154     8    -2.4191     2.4191     2.4191
   155     8    -2.4191     2.4191    -7.2573
   156     8    -2.4191     2.4191    -2.4191
   157     8    -2.4191    -7.2573     2.4191
   158     8    -2.4191    -7.2573    -7.2573
   159     8    -2.4191    -7.2573    -2.4191
   160     8    -2.4191    -2.4191     2.4191
   161     8    -2.4191    -2.4191    -7.2573
   162     8    -2.4191    -2.4191    -2.4191
   163     8     2.4191    -0.0000    -0.0000
   164     8     2.4191    -0.0000     4.8382
   165     8     2.4191    -0.0000    -4.8382
   166     8     2.4191     4.8382    -0.0000
   167     8     2.4191     4.8382     4.8382
   168     8     2.4191     4.8382    -4.8382
   169     8     2.4191    -4.8382    -0.0000
   170     8     2.4191    -4.8382     4.8382
   171     8     2.4191    -4.8382    -4.8382
   172     8    -7.2573    -0.0000    -0.0000
   173     8    -7.2573    -0.0000     4.8382
   174     8    -7.2573    -0.0000    -4.8382
   175     8    -7.2573     4.8382    -0.0000
   176     8    -7.2573     4.8382     4.8382
   177     8    -7.2573     4.8382    -4.8382
   178     8    -7.2573    -4.8382    -0.0000
   179     8    -7.2573    -4.8382     4.8382
   180     8    -7.2573    -4.8382    -4.8382
   181     8    -2.4191    -0.0000    -0.0000
   182     8    -2.4191    -0.0000     4.8382
   183     8    -2.4191    -0.0000    -4.8382
   184     8    -2.4191     4.8382    -0.0000
   185     8    -2.4191     4.8382     4.8382
   186     8    -2.4191     4.8382    -4.8382
   187     8    -2.4191    -4.8382    -0.0000
   188     8    -2.4191    -4.8382     4.8382
   189     8    -2.4191    -4.8382    -4.8382
   190     8     0.0000     2.4191    -0.0000
   191     8     0.0000     2.4191     4.8382
   192     8     0.0000     2.4191    -4.8382
   193     8     0.0000    -7.2573    -0.0000
   194     8     0.0000    -7.2573     4.8382
   195     8     0.0000    -7.2573    -4.8382
   196     8     0.0000    -2.4191    -0.0000
   197     8     0.0000    -2.4191     4.8382
   198     8     0.0000    -2.4191    -4.8382
   199     8     4.8382     2.4191    -0.0000
   200     8     4.8382     2.4191     4.8382
   201     8     4.8382     2.4191    -4.8382
   202     8     4.8382    -7.2573    -0.0000
   203     8     4.8382    -7.2573     4.8382
   204     8     4.8382    -7.2573    -4.8382
   205     8     4.8382    -2.4191    -0.0000
   206     8     4.8382    -2.4191     4.8382
   207     8     4.8382    -2.4191    -4.8382
   208     8    -4.8382     2.4191    -0.0000
   209     8    -4.8382     2.4191     4.8382
   210     8    -4.8382     2.4191    -4.8382
   211     8    -4.8382    -7.2573    -0.0000
   212     8    -4.8382    -7.2573     4.8382
   213     8    -4.8382    -7.2573    -4.8382
   214     8    -4.8382    -2.4191    -0.0000
   215     8    -4.8382    -2.4191     4.8382
   216     8    -4.8382    -2.4191    -4.8382

 ***** 1296 SYMMOPS - TRANSLATORS IN ANGSTROM
 ***** MATRICES AND TRANSLATORS IN THE CARTESIAN REFERENCE FRAME

 ORDER   : ORDER OF THE OPERATOR

 TRANSLA : REAL TRANSLATION (WITHOUT ORIGIN SHIFT) IN CARTESIAN COORDINATES

 uvw/hkl : ORIENTATION OF THE OPERATOR IN CARTESIAN COORDINATES

 LOCATED : ORIGIN OF THE OPERATOR IN CARTESIAN COORDINATES

   NO.   1 INVERSE   1    ORDER   1        NO.   2 INVERSE   2    ORDER   2
    1.000   0.000   0.000     0.000        -1.000   0.000   0.000     0.000
    0.000   1.000   0.000     0.000         0.000  -1.000   0.000     0.000
    0.000   0.000   1.000     0.000         0.000   0.000   1.000     0.000
             OPERATION E(   1)                       OPERATION C(   2)
 DETERMINANT 1.; ROTATION(DEG)   0.      DETERMINANT 1.; ROTATION(DEG) 180.
 TRANSLA (  0.000    0.000    0.000)     TRANSLA (  0.000    0.000    0.000)
 uvw/hkl (  0.000    0.000    0.000)     uvw/hkl (  0.000    0.000    4.000)
 LOCATED (  0.000    0.000    0.000)     LOCATED (  0.000    0.000    0.000)

   NO.   3 INVERSE   3    ORDER   2        NO.   4 INVERSE   4    ORDER   2
    1.000   0.000   0.000     0.000        -1.000   0.000   0.000     0.000
    0.000  -1.000   0.000     0.000         0.000   1.000   0.000     0.000
    0.000   0.000  -1.000     0.000         0.000   0.000  -1.000     0.000
             OPERATION C(   2)                       OPERATION C(   2)
 DETERMINANT 1.; ROTATION(DEG) 180.      DETERMINANT 1.; ROTATION(DEG) 180.
 TRANSLA (  0.000    0.000    0.000)     TRANSLA (  0.000    0.000    0.000)
 uvw/hkl (  4.000    0.000    0.000)     uvw/hkl (  0.000   -4.000    0.000)
 LOCATED (  0.000    0.000    0.000)     LOCATED (  0.000    0.000    0.000)

   NO.   5 INVERSE   6    ORDER   3        NO.   6 INVERSE   5    ORDER   3
    0.000   0.000   1.000     0.000         0.000   1.000   0.000     0.000
    1.000   0.000   0.000     0.000         0.000   0.000   1.000     0.000
    0.000   1.000   0.000     0.000         1.000   0.000   0.000     0.000
             OPERATION C(   3)                       OPERATION C(   3)
 DETERMINANT 1.; ROTATION(DEG) 120.      DETERMINANT 1.; ROTATION(DEG) 120.
 TRANSLA (  0.000    0.000    0.000)     TRANSLA (  0.000    0.000    0.000)
 uvw/hkl (  1.000    1.000    1.000)     uvw/hkl (  1.000    1.000    1.000)
 LOCATED (  0.000    0.000    0.000)     LOCATED (  0.000    0.000    0.000)

   NO.   7 INVERSE   8    ORDER   3        NO.   8 INVERSE   7    ORDER   3
    0.000   0.000  -1.000     0.000         0.000  -1.000   0.000     0.000
   -1.000   0.000   0.000     0.000         0.000   0.000   1.000     0.000
    0.000   1.000   0.000     0.000        -1.000   0.000   0.000     0.000
             OPERATION C(   3)                       OPERATION C(   3)
 DETERMINANT 1.; ROTATION(DEG) 120.      DETERMINANT 1.; ROTATION(DEG) 120.
 TRANSLA (  0.000    0.000    0.000)     TRANSLA (  0.000    0.000    0.000)
 uvw/hkl ( -1.000    1.000    1.000)     uvw/hkl ( -1.000    1.000    1.000)
 LOCATED (  0.000    0.000    0.000)     LOCATED (  0.000    0.000    0.000)

   NO.   9 INVERSE  10    ORDER   3        NO.  10 INVERSE   9    ORDER   3
    0.000   0.000   1.000     0.000         0.000  -1.000   0.000     0.000
   -1.000   0.000   0.000     0.000         0.000   0.000  -1.000     0.000
    0.000  -1.000   0.000     0.000         1.000   0.000   0.000     0.000
             OPERATION C(   3)                       OPERATION C(   3)
 DETERMINANT 1.; ROTATION(DEG) 120.      DETERMINANT 1.; ROTATION(DEG) 120.
 TRANSLA (  0.000    0.000    0.000)     TRANSLA (  0.000    0.000    0.000)
 uvw/hkl (  1.000   -1.000    1.000)     uvw/hkl (  1.000   -1.000    1.000)
 LOCATED (  0.000    0.000    0.000)     LOCATED (  0.000    0.000    0.000)

   NO.  11 INVERSE  12    ORDER   3        NO.  12 INVERSE  11    ORDER   3
    0.000   0.000  -1.000     0.000         0.000   1.000   0.000     0.000
    1.000   0.000   0.000     0.000         0.000   0.000  -1.000     0.000
    0.000  -1.000   0.000     0.000        -1.000   0.000   0.000     0.000
             OPERATION C(   3)                       OPERATION C(   3)
 DETERMINANT 1.; ROTATION(DEG) 120.      DETERMINANT 1.; ROTATION(DEG) 120.
 TRANSLA (  0.000    0.000    0.000)     TRANSLA (  0.000    0.000    0.000)
 uvw/hkl ( -1.000   -1.000    1.000)     uvw/hkl ( -1.000   -1.000    1.000)
 LOCATED (  0.000    0.000    0.000)     LOCATED (  0.000    0.000    0.000)

   NO.  13 INVERSE  13    ORDER   2        NO.  14 INVERSE  14    ORDER   2
    0.000  -1.000   0.000     0.000         0.000   1.000   0.000     0.000
   -1.000   0.000   0.000     0.000         1.000   0.000   0.000     0.000
    0.000   0.000  -1.000     0.000         0.000   0.000  -1.000     0.000
             OPERATION C(   2)                       OPERATION C(   2)
 DETERMINANT 1.; ROTATION(DEG) 180.      DETERMINANT 1.; ROTATION(DEG) 180.
 TRANSLA (  0.000    0.000    0.000)     TRANSLA (  0.000    0.000    0.000)
 uvw/hkl (  2.000   -2.000    0.000)     uvw/hkl ( -2.000   -2.000    0.000)
 LOCATED (  0.000    0.000    0.000)     LOCATED (  0.000    0.000    0.000)

   NO.  15 INVERSE  16    ORDER   4        NO.  16 INVERSE  15    ORDER   4
    0.000   1.000   0.000     0.000         0.000  -1.000   0.000     0.000
   -1.000   0.000   0.000     0.000         1.000   0.000   0.000     0.000
    0.000   0.000   1.000     0.000         0.000   0.000   1.000     0.000
             OPERATION C(   4)                       OPERATION C(   4)
 DETERMINANT 1.; ROTATION(DEG)  90.      DETERMINANT 1.; ROTATION(DEG)  90.
 TRANSLA (  0.000    0.000    0.000)     TRANSLA (  0.000    0.000    0.000)
 uvw/hkl (  0.000    0.000    2.000)     uvw/hkl (  0.000    0.000    2.000)
 LOCATED (  0.000    0.000    0.000)     LOCATED (  0.000    0.000    0.000)

   NO.  17 INVERSE  17    ORDER   2        NO.  18 INVERSE  18    ORDER   2
   -1.000   0.000   0.000     0.000         0.000   0.000  -1.000     0.000
    0.000   0.000  -1.000     0.000         0.000  -1.000   0.000     0.000
    0.000  -1.000   0.000     0.000        -1.000   0.000   0.000     0.000
             OPERATION C(   2)                       OPERATION C(   2)
 DETERMINANT 1.; ROTATION(DEG) 180.      DETERMINANT 1.; ROTATION(DEG) 180.
 TRANSLA (  0.000    0.000    0.000)     TRANSLA (  0.000    0.000    0.000)
 uvw/hkl (  0.000   -2.000    2.000)     uvw/hkl ( -2.000    0.000    2.000)
 LOCATED (  0.000    0.000    0.000)     LOCATED (  0.000    0.000    0.000)

   NO.  19 INVERSE  21    ORDER   4        NO.  20 INVERSE  22    ORDER   4
    1.000   0.000   0.000     0.000         0.000   0.000  -1.000     0.000
    0.000   0.000   1.000     0.000         0.000   1.000   0.000     0.000
    0.000  -1.000   0.000     0.000         1.000   0.000   0.000     0.000
             OPERATION C(   4)                       OPERATION C(   4)
 DETERMINANT 1.; ROTATION(DEG)  90.      DETERMINANT 1.; ROTATION(DEG)  90.
 TRANSLA (  0.000    0.000    0.000)     TRANSLA (  0.000    0.000    0.000)
 uvw/hkl (  2.000    0.000    0.000)     uvw/hkl (  0.000   -2.000    0.000)
 LOCATED (  0.000    0.000    0.000)     LOCATED (  0.000    0.000    0.000)

   NO.  21 INVERSE  19    ORDER   4        NO.  22 INVERSE  20    ORDER   4
    1.000   0.000   0.000     0.000         0.000   0.000   1.000     0.000
    0.000   0.000  -1.000     0.000         0.000   1.000   0.000     0.000
    0.000   1.000   0.000     0.000        -1.000   0.000   0.000     0.000
             OPERATION C(   4)                       OPERATION C(   4)
 DETERMINANT 1.; ROTATION(DEG)  90.      DETERMINANT 1.; ROTATION(DEG)  90.
 TRANSLA (  0.000    0.000    0.000)     TRANSLA (  0.000    0.000    0.000)
 uvw/hkl (  2.000    0.000    0.000)     uvw/hkl (  0.000   -2.000    0.000)
 LOCATED (  0.000    0.000    0.000)     LOCATED (  0.000    0.000    0.000)

   NO.  23 INVERSE  23    ORDER   2        NO.  24 INVERSE  24    ORDER   2
   -1.000   0.000   0.000     0.000         0.000   0.000   1.000     0.000
    0.000   0.000   1.000     0.000         0.000  -1.000   0.000     0.000
    0.000   1.000   0.000     0.000         1.000   0.000   0.000     0.000
             OPERATION C(   2)                       OPERATION C(   2)
 DETERMINANT 1.; ROTATION(DEG) 180.      DETERMINANT 1.; ROTATION(DEG) 180.
 TRANSLA (  0.000    0.000    0.000)     TRANSLA (  0.000    0.000    0.000)
 uvw/hkl (  0.000    2.000    2.000)     uvw/hkl (  2.000    0.000    2.000)
 LOCATED (  0.000    0.000    0.000)     LOCATED (  0.000    0.000    0.000)

   NO.  25 INVERSE  25    ORDER   2        NO.  26 INVERSE  26    ORDER   2
   -1.000   0.000   0.000     0.000         1.000   0.000   0.000     0.000
    0.000  -1.000   0.000     0.000         0.000   1.000   0.000     0.000
    0.000   0.000  -1.000     0.000         0.000   0.000  -1.000     0.000
             OPERATION I(   2)                       OPERATION M(   2)
 DETERMINANT-1.; ROTATION(DEG) 180.      DETERMINANT-1.; ROTATION(DEG)   0.
 TRANSLA (  0.000    0.000    0.000)     TRANSLA (  0.000    0.000    0.000)
 uvw/hkl (  0.000    0.000    0.000)     uvw/hkl (  0.000    0.000   -2.000)
 LOCATED (  0.000    0.000    0.000)     LOCATED (  0.000    0.000    0.000)

   NO.  27 INVERSE  27    ORDER   2        NO.  28 INVERSE  28    ORDER   2
   -1.000   0.000   0.000     0.000         1.000   0.000   0.000     0.000
    0.000   1.000   0.000     0.000         0.000  -1.000   0.000     0.000
    0.000   0.000   1.000     0.000         0.000   0.000   1.000     0.000
             OPERATION M(   2)                       OPERATION M(   2)
 DETERMINANT-1.; ROTATION(DEG)   0.      DETERMINANT-1.; ROTATION(DEG)   0.
 TRANSLA (  0.000    0.000    0.000)     TRANSLA (  0.000    0.000    0.000)
 uvw/hkl (  2.000    0.000    0.000)     uvw/hkl (  0.000   -2.000    0.000)
 LOCATED (  0.000    0.000    0.000)     LOCATED (  0.000    0.000    0.000)

   NO.  29 INVERSE  30    ORDER   6        NO.  30 INVERSE  29    ORDER   6
    0.000   0.000  -1.000     0.000         0.000  -1.000   0.000     0.000
   -1.000   0.000   0.000     0.000         0.000   0.000  -1.000     0.000
    0.000  -1.000   0.000     0.000        -1.000   0.000   0.000     0.000
             OPERATION S(   6)                       OPERATION S(   6)
 DETERMINANT-1.; ROTATION(DEG)  60.      DETERMINANT-1.; ROTATION(DEG)  60.
 TRANSLA (  0.000    0.000    0.000)     TRANSLA (  0.000    0.000    0.000)
 uvw/hkl ( -1.000    1.000    1.000)     uvw/hkl (  1.000   -1.000    1.000)
 LOCATED (  0.000    0.000    0.000)     LOCATED (  0.000    0.000    0.000)

   NO.  31 INVERSE  32    ORDER   6        NO.  32 INVERSE  31    ORDER   6
    0.000   0.000   1.000     0.000         0.000   1.000   0.000     0.000
    1.000   0.000   0.000     0.000         0.000   0.000  -1.000     0.000
    0.000  -1.000   0.000     0.000         1.000   0.000   0.000     0.000
             OPERATION S(   6)                       OPERATION S(   6)
 DETERMINANT-1.; ROTATION(DEG)  60.      DETERMINANT-1.; ROTATION(DEG)  60.
 TRANSLA (  0.000    0.000    0.000)     TRANSLA (  0.000    0.000    0.000)
 uvw/hkl (  1.000    1.000    1.000)     uvw/hkl ( -1.000   -1.000    1.000)
 LOCATED (  0.000    0.000    0.000)     LOCATED (  0.000    0.000    0.000)

   NO.  33 INVERSE  34    ORDER   6        NO.  34 INVERSE  33    ORDER   6
    0.000   0.000  -1.000     0.000         0.000   1.000   0.000     0.000
    1.000   0.000   0.000     0.000         0.000   0.000   1.000     0.000
    0.000   1.000   0.000     0.000        -1.000   0.000   0.000     0.000
             OPERATION S(   6)                       OPERATION S(   6)
 DETERMINANT-1.; ROTATION(DEG)  60.      DETERMINANT-1.; ROTATION(DEG)  60.
 TRANSLA (  0.000    0.000    0.000)     TRANSLA (  0.000    0.000    0.000)
 uvw/hkl ( -1.000   -1.000    1.000)     uvw/hkl (  1.000    1.000    1.000)
 LOCATED (  0.000    0.000    0.000)     LOCATED (  0.000    0.000    0.000)

   NO.  35 INVERSE  36    ORDER   6        NO.  36 INVERSE  35    ORDER   6
    0.000   0.000   1.000     0.000         0.000  -1.000   0.000     0.000
   -1.000   0.000   0.000     0.000         0.000   0.000   1.000     0.000
    0.000   1.000   0.000     0.000         1.000   0.000   0.000     0.000
             OPERATION S(   6)                       OPERATION S(   6)
 DETERMINANT-1.; ROTATION(DEG)  60.      DETERMINANT-1.; ROTATION(DEG)  60.
 TRANSLA (  0.000    0.000    0.000)     TRANSLA (  0.000    0.000    0.000)
 uvw/hkl (  1.000   -1.000    1.000)     uvw/hkl ( -1.000    1.000    1.000)
 LOCATED (  0.000    0.000    0.000)     LOCATED (  0.000    0.000    0.000)

   NO.  37 INVERSE  37    ORDER   2        NO.  38 INVERSE  38    ORDER   2
    0.000   1.000   0.000     0.000         0.000  -1.000   0.000     0.000
    1.000   0.000   0.000     0.000        -1.000   0.000   0.000     0.000
    0.000   0.000   1.000     0.000         0.000   0.000   1.000     0.000
             OPERATION M(   2)                       OPERATION M(   2)
 DETERMINANT-1.; ROTATION(DEG)   0.      DETERMINANT-1.; ROTATION(DEG)   0.
 TRANSLA (  0.000    0.000    0.000)     TRANSLA (  0.000    0.000    0.000)
 uvw/hkl (  1.000   -1.000    0.000)     uvw/hkl (  1.000    1.000    0.000)
 LOCATED (  0.000    0.000    0.000)     LOCATED (  0.000    0.000    0.000)

   NO.  39 INVERSE  40    ORDER   4        NO.  40 INVERSE  39    ORDER   4
    0.000  -1.000   0.000     0.000         0.000   1.000   0.000     0.000
    1.000   0.000   0.000     0.000        -1.000   0.000   0.000     0.000
    0.000   0.000  -1.000     0.000         0.000   0.000  -1.000     0.000
             OPERATION S(   4)                       OPERATION S(   4)
 DETERMINANT-1.; ROTATION(DEG)  90.      DETERMINANT-1.; ROTATION(DEG)  90.
 TRANSLA (  0.000    0.000    0.000)     TRANSLA (  0.000    0.000    0.000)
 uvw/hkl (  0.000    0.000    2.000)     uvw/hkl (  0.000    0.000    2.000)
 LOCATED (  0.000    0.000    0.000)     LOCATED (  0.000    0.000    0.000)

   NO.  41 INVERSE  41    ORDER   2        NO.  42 INVERSE  42    ORDER   2
    1.000   0.000   0.000     0.000         0.000   0.000   1.000     0.000
    0.000   0.000   1.000     0.000         0.000   1.000   0.000     0.000
    0.000   1.000   0.000     0.000         1.000   0.000   0.000     0.000
             OPERATION M(   2)                       OPERATION M(   2)
 DETERMINANT-1.; ROTATION(DEG)   0.      DETERMINANT-1.; ROTATION(DEG)   0.
 TRANSLA (  0.000    0.000    0.000)     TRANSLA (  0.000    0.000    0.000)
 uvw/hkl (  0.000   -1.000    1.000)     uvw/hkl (  1.000    0.000   -1.000)
 LOCATED (  0.000    0.000    0.000)     LOCATED (  0.000    0.000    0.000)

   NO.  43 INVERSE  45    ORDER   4        NO.  44 INVERSE  46    ORDER   4
   -1.000   0.000   0.000     0.000         0.000   0.000   1.000     0.000
    0.000   0.000  -1.000     0.000         0.000  -1.000   0.000     0.000
    0.000   1.000   0.000     0.000        -1.000   0.000   0.000     0.000
             OPERATION S(   4)                       OPERATION S(   4)
 DETERMINANT-1.; ROTATION(DEG)  90.      DETERMINANT-1.; ROTATION(DEG)  90.
 TRANSLA (  0.000    0.000    0.000)     TRANSLA (  0.000    0.000    0.000)
 uvw/hkl (  0.000   -2.000    2.000)     uvw/hkl (  2.000    0.000    2.000)
 LOCATED (  0.000    0.000    0.000)     LOCATED (  0.000    0.000    0.000)

   NO.  45 INVERSE  43    ORDER   4        NO.  46 INVERSE  44    ORDER   4
   -1.000   0.000   0.000     0.000         0.000   0.000  -1.000     0.000
    0.000   0.000   1.000     0.000         0.000  -1.000   0.000     0.000
    0.000  -1.000   0.000     0.000         1.000   0.000   0.000     0.000
             OPERATION S(   4)                       OPERATION S(   4)
 DETERMINANT-1.; ROTATION(DEG)  90.      DETERMINANT-1.; ROTATION(DEG)  90.
 TRANSLA (  0.000    0.000    0.000)     TRANSLA (  0.000    0.000    0.000)
 uvw/hkl (  0.000    2.000    2.000)     uvw/hkl ( -2.000    0.000    2.000)
 LOCATED (  0.000    0.000    0.000)     LOCATED (  0.000    0.000    0.000)

   NO.  47 INVERSE  47    ORDER   2        NO.  48 INVERSE  48    ORDER   2
    1.000   0.000   0.000     0.000         0.000   0.000  -1.000     0.000
    0.000   0.000  -1.000     0.000         0.000   1.000   0.000     0.000
    0.000  -1.000   0.000     0.000        -1.000   0.000   0.000     0.000
             OPERATION M(   2)                       OPERATION M(   2)
 DETERMINANT-1.; ROTATION(DEG)   0.      DETERMINANT-1.; ROTATION(DEG)   0.
 TRANSLA (  0.000    0.000    0.000)     TRANSLA (  0.000    0.000    0.000)
 uvw/hkl (  0.000   -1.000   -1.000)     uvw/hkl (  1.000    0.000    1.000)
 LOCATED (  0.000    0.000    0.000)     LOCATED (  0.000    0.000    0.000)

   NO.  49 INVERSE  97    ORDER   1        NO.  50 INVERSE  98    ORDER   2
    1.000   0.000   0.000     0.000        -1.000   0.000   0.000     0.000
    0.000   1.000   0.000     0.000         0.000  -1.000   0.000     0.000
    0.000   0.000   1.000     4.838         0.000   0.000   1.000     4.838
             OPERATION E(   1)                       OPERATION C(   2)
 DETERMINANT 1.; ROTATION(DEG)   0.      DETERMINANT 1.; ROTATION(DEG) 180.
 TRANSLA (  0.000    0.000    4.838)     TRANSLA (  0.000    0.000    4.838)
 uvw/hkl (  0.000    0.000    0.000)     uvw/hkl (  0.000    0.000    4.000)
 LOCATED (  0.000    0.000    0.000)     LOCATED (  0.000    0.000    0.000)

   NO.  51 INVERSE  51    ORDER   2        NO.  52 INVERSE  52    ORDER   2
    1.000   0.000   0.000     0.000        -1.000   0.000   0.000     0.000
    0.000  -1.000   0.000     0.000         0.000   1.000   0.000     0.000
    0.000   0.000  -1.000     4.838         0.000   0.000  -1.000     4.838
             OPERATION C(   2)                       OPERATION C(   2)
 DETERMINANT 1.; ROTATION(DEG) 180.      DETERMINANT 1.; ROTATION(DEG) 180.
 TRANSLA (  0.000    0.000   -0.000)     TRANSLA (  0.000    0.000   -0.000)
 uvw/hkl (  4.000    0.000    0.000)     uvw/hkl (  0.000   -4.000    0.000)
 LOCATED (  0.000    0.000    2.419)     LOCATED (  0.000    0.000    2.419)

   NO.  53 INVERSE 294    ORDER   3        NO.  54 INVERSE 869    ORDER   3
    0.000   0.000   1.000     0.000         0.000   1.000   0.000     0.000
    1.000   0.000   0.000     0.000         0.000   0.000   1.000     0.000
    0.000   1.000   0.000     4.838         1.000   0.000   0.000     4.838
             OPERATION C(   3)                       OPERATION C(   3)
 DETERMINANT 1.; ROTATION(DEG) 120.      DETERMINANT 1.; ROTATION(DEG) 120.
 TRANSLA (  1.613    1.613    1.613)     TRANSLA (  1.613    1.613    1.613)
 uvw/hkl (  1.000    1.000    1.000)     uvw/hkl (  1.000    1.000    1.000)
 LOCATED ( -1.613   -3.225    0.000)     LOCATED ( -3.225   -1.613    0.000)

   NO.  55 INVERSE 296    ORDER   3        NO.  56 INVERSE 439    ORDER   3
    0.000   0.000  -1.000     0.000         0.000  -1.000   0.000     0.000
   -1.000   0.000   0.000     0.000         0.000   0.000   1.000     0.000
    0.000   1.000   0.000     4.838        -1.000   0.000   0.000     4.838
             OPERATION C(   3)                       OPERATION C(   3)
 DETERMINANT 1.; ROTATION(DEG) 120.      DETERMINANT 1.; ROTATION(DEG) 120.
 TRANSLA ( -1.613    1.613    1.613)     TRANSLA ( -1.613    1.613    1.613)
 uvw/hkl ( -1.000    1.000    1.000)     uvw/hkl ( -1.000    1.000    1.000)
 LOCATED (  1.613   -3.225    0.000)     LOCATED (  3.225   -1.613    0.000)

   NO.  57 INVERSE 154    ORDER   3        NO.  58 INVERSE 873    ORDER   3
    0.000   0.000   1.000     0.000         0.000  -1.000   0.000     0.000
   -1.000   0.000   0.000     0.000         0.000   0.000  -1.000     0.000
    0.000  -1.000   0.000     4.838         1.000   0.000   0.000     4.838
             OPERATION C(   3)                       OPERATION C(   3)
 DETERMINANT 1.; ROTATION(DEG) 120.      DETERMINANT 1.; ROTATION(DEG) 120.
 TRANSLA (  1.613   -1.613    1.613)     TRANSLA (  1.613   -1.613    1.613)
 uvw/hkl (  1.000   -1.000    1.000)     uvw/hkl (  1.000   -1.000    1.000)
 LOCATED ( -1.613    3.225    0.000)     LOCATED ( -3.225    1.613    0.000)

   NO.  59 INVERSE 156    ORDER   3        NO.  60 INVERSE 443    ORDER   3
    0.000   0.000  -1.000     0.000         0.000   1.000   0.000     0.000
    1.000   0.000   0.000     0.000         0.000   0.000  -1.000     0.000
    0.000  -1.000   0.000     4.838        -1.000   0.000   0.000     4.838
             OPERATION C(   3)                       OPERATION C(   3)
 DETERMINANT 1.; ROTATION(DEG) 120.      DETERMINANT 1.; ROTATION(DEG) 120.
 TRANSLA ( -1.613   -1.613    1.613)     TRANSLA ( -1.613   -1.613    1.613)
 uvw/hkl ( -1.000   -1.000    1.000)     uvw/hkl ( -1.000   -1.000    1.000)
 LOCATED (  1.613    3.225    0.000)     LOCATED (  3.225    1.613    0.000)

   NO.  61 INVERSE  61    ORDER   2        NO.  62 INVERSE  62    ORDER   2
    0.000  -1.000   0.000     0.000         0.000   1.000   0.000     0.000
   -1.000   0.000   0.000     0.000         1.000   0.000   0.000     0.000
    0.000   0.000  -1.000     4.838         0.000   0.000  -1.000     4.838
             OPERATION C(   2)                       OPERATION C(   2)
 DETERMINANT 1.; ROTATION(DEG) 180.      DETERMINANT 1.; ROTATION(DEG) 180.
 TRANSLA (  0.000    0.000   -0.000)     TRANSLA (  0.000    0.000   -0.000)
 uvw/hkl (  2.000   -2.000    0.000)     uvw/hkl ( -2.000   -2.000    0.000)
 LOCATED (  0.000    0.000    2.419)     LOCATED (  0.000    0.000    2.419)

   NO.  63 INVERSE 112    ORDER   4        NO.  64 INVERSE 111    ORDER   4
    0.000   1.000   0.000     0.000         0.000  -1.000   0.000     0.000
   -1.000   0.000   0.000     0.000         1.000   0.000   0.000     0.000
    0.000   0.000   1.000     4.838         0.000   0.000   1.000     4.838
             OPERATION C(   4)                       OPERATION C(   4)
 DETERMINANT 1.; ROTATION(DEG)  90.      DETERMINANT 1.; ROTATION(DEG)  90.
 TRANSLA (  0.000    0.000    4.838)     TRANSLA (  0.000    0.000    4.838)
 uvw/hkl (  0.000    0.000    2.000)     uvw/hkl (  0.000    0.000    2.000)
 LOCATED (  0.000    0.000    0.000)     LOCATED (  0.000    0.000    0.000)

   NO.  65 INVERSE 161    ORDER   2        NO.  66 INVERSE 450    ORDER   2
   -1.000   0.000   0.000     0.000         0.000   0.000  -1.000     0.000
    0.000   0.000  -1.000     0.000         0.000  -1.000   0.000     0.000
    0.000  -1.000   0.000     4.838        -1.000   0.000   0.000     4.838
             OPERATION C(   2)                       OPERATION C(   2)
 DETERMINANT 1.; ROTATION(DEG) 180.      DETERMINANT 1.; ROTATION(DEG) 180.
 TRANSLA (  0.000   -2.419    2.419)     TRANSLA ( -2.419    0.000    2.419)
 uvw/hkl (  0.000   -2.000    2.000)     uvw/hkl ( -2.000    0.000    2.000)
 LOCATED (  0.000    2.419    0.000)     LOCATED (  2.419    0.000    0.000)

   NO.  67 INVERSE 165    ORDER   4        NO.  68 INVERSE 886    ORDER   4
    1.000   0.000   0.000     0.000         0.000   0.000  -1.000     0.000
    0.000   0.000   1.000     0.000         0.000   1.000   0.000     0.000
    0.000  -1.000   0.000     4.838         1.000   0.000   0.000     4.838
             OPERATION C(   4)                       OPERATION C(   4)
 DETERMINANT 1.; ROTATION(DEG)  90.      DETERMINANT 1.; ROTATION(DEG)  90.
 TRANSLA (  0.000   -0.000   -0.000)     TRANSLA (  0.000    0.000   -0.000)
 uvw/hkl (  2.000    0.000    0.000)     uvw/hkl (  0.000   -2.000    0.000)
 LOCATED (  0.000    2.419    2.419)     LOCATED ( -2.419    0.000    2.419)

   NO.  69 INVERSE 307    ORDER   4        NO.  70 INVERSE 452    ORDER   4
    1.000   0.000   0.000     0.000         0.000   0.000   1.000     0.000
    0.000   0.000  -1.000     0.000         0.000   1.000   0.000     0.000
    0.000   1.000   0.000     4.838        -1.000   0.000   0.000     4.838
             OPERATION C(   4)                       OPERATION C(   4)
 DETERMINANT 1.; ROTATION(DEG)  90.      DETERMINANT 1.; ROTATION(DEG)  90.
 TRANSLA (  0.000    0.000   -0.000)     TRANSLA ( -0.000    0.000   -0.000)
 uvw/hkl (  2.000    0.000    0.000)     uvw/hkl (  0.000   -2.000    0.000)
 LOCATED (  0.000   -2.419    2.419)     LOCATED (  2.419    0.000    2.419)

   NO.  71 INVERSE 311    ORDER   2        NO.  72 INVERSE 888    ORDER   2
   -1.000   0.000   0.000     0.000         0.000   0.000   1.000     0.000
    0.000   0.000   1.000     0.000         0.000  -1.000   0.000     0.000
    0.000   1.000   0.000     4.838         1.000   0.000   0.000     4.838
             OPERATION C(   2)                       OPERATION C(   2)
 DETERMINANT 1.; ROTATION(DEG) 180.      DETERMINANT 1.; ROTATION(DEG) 180.
 TRANSLA (  0.000    2.419    2.419)     TRANSLA (  2.419    0.000    2.419)
 uvw/hkl (  0.000    2.000    2.000)     uvw/hkl (  2.000    0.000    2.000)
 LOCATED (  0.000   -2.419    0.000)     LOCATED ( -2.419    0.000    0.000)

   NO.  73 INVERSE  73    ORDER   2        NO.  74 INVERSE  74    ORDER   2
   -1.000   0.000   0.000     0.000         1.000   0.000   0.000     0.000
    0.000  -1.000   0.000     0.000         0.000   1.000   0.000     0.000
    0.000   0.000  -1.000     4.838         0.000   0.000  -1.000     4.838
             OPERATION I(   2)                       OPERATION M(   2)
 DETERMINANT-1.; ROTATION(DEG) 180.      DETERMINANT-1.; ROTATION(DEG)   0.
 TRANSLA (  0.000    0.000   -0.000)     TRANSLA (  0.000    0.000   -0.000)
 uvw/hkl (  0.000    0.000    0.000)     uvw/hkl (  0.000    0.000   -2.000)
 LOCATED (  0.000    0.000    2.419)     LOCATED (  0.000    0.000    2.419)

   NO.  75 INVERSE 123    ORDER   2        NO.  76 INVERSE 124    ORDER   2
   -1.000   0.000   0.000     0.000         1.000   0.000   0.000     0.000
    0.000   1.000   0.000     0.000         0.000  -1.000   0.000     0.000
    0.000   0.000   1.000     4.838         0.000   0.000   1.000     4.838
             OPERATION M(   2)                       OPERATION M(   2)
 DETERMINANT-1.; ROTATION(DEG)   0.      DETERMINANT-1.; ROTATION(DEG)   0.
 TRANSLA (  0.000    0.000    4.838)     TRANSLA (  0.000    0.000    4.838)
 uvw/hkl (  2.000    0.000    0.000)     uvw/hkl (  0.000   -2.000    0.000)
 LOCATED (  0.000    0.000    0.000)     LOCATED (  0.000    0.000    0.000)

   NO.  77 INVERSE 174    ORDER   6        NO.  78 INVERSE 461    ORDER   6
    0.000   0.000  -1.000     0.000         0.000  -1.000   0.000     0.000
   -1.000   0.000   0.000     0.000         0.000   0.000  -1.000     0.000
    0.000  -1.000   0.000     4.838        -1.000   0.000   0.000     4.838
             OPERATION S(   6)                       OPERATION S(   6)
 DETERMINANT-1.; ROTATION(DEG)  60.      DETERMINANT-1.; ROTATION(DEG)  60.
 TRANSLA (  0.000   -0.000   -0.000)     TRANSLA ( -0.000    0.000   -0.000)
 uvw/hkl ( -1.000    1.000    1.000)     uvw/hkl (  1.000   -1.000    1.000)
 LOCATED ( -0.000    0.000   -0.000)     LOCATED (  0.000   -0.000   -0.000)

   NO.  79 INVERSE 176    ORDER   6        NO.  80 INVERSE 895    ORDER   6
    0.000   0.000   1.000     0.000         0.000   1.000   0.000     0.000
    1.000   0.000   0.000     0.000         0.000   0.000  -1.000     0.000
    0.000  -1.000   0.000     4.838         1.000   0.000   0.000     4.838
             OPERATION S(   6)                       OPERATION S(   6)
 DETERMINANT-1.; ROTATION(DEG)  60.      DETERMINANT-1.; ROTATION(DEG)  60.
 TRANSLA ( -0.000   -0.000   -0.000)     TRANSLA (  0.000    0.000   -0.000)
 uvw/hkl (  1.000    1.000    1.000)     uvw/hkl ( -1.000   -1.000    1.000)
 LOCATED (  0.000    0.000   -0.000)     LOCATED ( -0.000   -0.000   -0.000)

   NO.  81 INVERSE 322    ORDER   6        NO.  82 INVERSE 465    ORDER   6
    0.000   0.000  -1.000     0.000         0.000   1.000   0.000     0.000
    1.000   0.000   0.000     0.000         0.000   0.000   1.000     0.000
    0.000   1.000   0.000     4.838        -1.000   0.000   0.000     4.838
             OPERATION S(   6)                       OPERATION S(   6)
 DETERMINANT-1.; ROTATION(DEG)  60.      DETERMINANT-1.; ROTATION(DEG)  60.
 TRANSLA (  0.000    0.000   -0.000)     TRANSLA ( -0.000   -0.000   -0.000)
 uvw/hkl ( -1.000   -1.000    1.000)     uvw/hkl (  1.000    1.000    1.000)
 LOCATED ( -0.000   -0.000   -0.000)     LOCATED (  0.000    0.000   -0.000)

   NO.  83 INVERSE 324    ORDER   6        NO.  84 INVERSE 899    ORDER   6
    0.000   0.000   1.000     0.000         0.000  -1.000   0.000     0.000
   -1.000   0.000   0.000     0.000         0.000   0.000   1.000     0.000
    0.000   1.000   0.000     4.838         1.000   0.000   0.000     4.838
             OPERATION S(   6)                       OPERATION S(   6)
 DETERMINANT-1.; ROTATION(DEG)  60.      DETERMINANT-1.; ROTATION(DEG)  60.
 TRANSLA ( -0.000    0.000   -0.000)     TRANSLA (  0.000   -0.000   -0.000)
 uvw/hkl (  1.000   -1.000    1.000)     uvw/hkl ( -1.000    1.000    1.000)
 LOCATED (  0.000   -0.000   -0.000)     LOCATED ( -0.000    0.000   -0.000)

   NO.  85 INVERSE 133    ORDER   2        NO.  86 INVERSE 134    ORDER   2
    0.000   1.000   0.000     0.000         0.000  -1.000   0.000     0.000
    1.000   0.000   0.000     0.000        -1.000   0.000   0.000     0.000
    0.000   0.000   1.000     4.838         0.000   0.000   1.000     4.838
             OPERATION M(   2)                       OPERATION M(   2)
 DETERMINANT-1.; ROTATION(DEG)   0.      DETERMINANT-1.; ROTATION(DEG)   0.
 TRANSLA (  0.000    0.000    4.838)     TRANSLA (  0.000    0.000    4.838)
 uvw/hkl (  1.000   -1.000    0.000)     uvw/hkl (  1.000    1.000    0.000)
 LOCATED (  0.000    0.000    0.000)     LOCATED (  0.000    0.000    0.000)

   NO.  87 INVERSE  88    ORDER   4        NO.  88 INVERSE  87    ORDER   4
    0.000  -1.000   0.000     0.000         0.000   1.000   0.000     0.000
    1.000   0.000   0.000     0.000        -1.000   0.000   0.000     0.000
    0.000   0.000  -1.000     4.838         0.000   0.000  -1.000     4.838
             OPERATION S(   4)                       OPERATION S(   4)
 DETERMINANT-1.; ROTATION(DEG)  90.      DETERMINANT-1.; ROTATION(DEG)  90.
 TRANSLA (  0.000    0.000   -0.000)     TRANSLA (  0.000    0.000   -0.000)
 uvw/hkl (  0.000    0.000    2.000)     uvw/hkl (  0.000    0.000    2.000)
 LOCATED (  0.000    0.000    2.419)     LOCATED (  0.000    0.000    2.419)

   NO.  89 INVERSE 329    ORDER   2        NO.  90 INVERSE 906    ORDER   2
    1.000   0.000   0.000     0.000         0.000   0.000   1.000     0.000
    0.000   0.000   1.000     0.000         0.000   1.000   0.000     0.000
    0.000   1.000   0.000     4.838         1.000   0.000   0.000     4.838
             OPERATION M(   2)                       OPERATION M(   2)
 DETERMINANT-1.; ROTATION(DEG)   0.      DETERMINANT-1.; ROTATION(DEG)   0.
 TRANSLA (  0.000    2.419    2.419)     TRANSLA (  2.419    0.000    2.419)
 uvw/hkl (  0.000   -1.000    1.000)     uvw/hkl (  1.000    0.000   -1.000)
 LOCATED (  0.000   -2.419    0.000)     LOCATED ( -2.419    0.000    0.000)

   NO.  91 INVERSE 333    ORDER   4        NO.  92 INVERSE 478    ORDER   4
   -1.000   0.000   0.000     0.000         0.000   0.000   1.000     0.000
    0.000   0.000  -1.000     0.000         0.000  -1.000   0.000     0.000
    0.000   1.000   0.000     4.838        -1.000   0.000   0.000     4.838
             OPERATION S(   4)                       OPERATION S(   4)
 DETERMINANT-1.; ROTATION(DEG)  90.      DETERMINANT-1.; ROTATION(DEG)  90.
 TRANSLA (  0.000    0.000   -0.000)     TRANSLA ( -0.000    0.000   -0.000)
 uvw/hkl (  0.000   -2.000    2.000)     uvw/hkl (  2.000    0.000    2.000)
 LOCATED (  0.000   -0.000   -0.000)     LOCATED (  0.000    0.000   -0.000)

   NO.  93 INVERSE 187    ORDER   4        NO.  94 INVERSE 908    ORDER   4
   -1.000   0.000   0.000     0.000         0.000   0.000  -1.000     0.000
    0.000   0.000   1.000     0.000         0.000  -1.000   0.000     0.000
    0.000  -1.000   0.000     4.838         1.000   0.000   0.000     4.838
             OPERATION S(   4)                       OPERATION S(   4)
 DETERMINANT-1.; ROTATION(DEG)  90.      DETERMINANT-1.; ROTATION(DEG)  90.
 TRANSLA (  0.000   -0.000   -0.000)     TRANSLA (  0.000    0.000   -0.000)
 uvw/hkl (  0.000    2.000    2.000)     uvw/hkl ( -2.000    0.000    2.000)
 LOCATED (  0.000    0.000   -0.000)     LOCATED ( -0.000    0.000   -0.000)

   NO.  95 INVERSE 191    ORDER   2        NO.  96 INVERSE 480    ORDER   2
    1.000   0.000   0.000     0.000         0.000   0.000  -1.000     0.000
    0.000   0.000  -1.000     0.000         0.000   1.000   0.000     0.000
    0.000  -1.000   0.000     4.838        -1.000   0.000   0.000     4.838
             OPERATION M(   2)                       OPERATION M(   2)
 DETERMINANT-1.; ROTATION(DEG)   0.      DETERMINANT-1.; ROTATION(DEG)   0.
 TRANSLA (  0.000   -2.419    2.419)     TRANSLA ( -2.419    0.000    2.419)
 uvw/hkl (  0.000   -1.000   -1.000)     uvw/hkl (  1.000    0.000    1.000)
 LOCATED (  0.000    2.419    0.000)     LOCATED (  2.419    0.000    0.000)

   NO.  97 INVERSE  49    ORDER   1        NO.  98 INVERSE  50    ORDER   2
    1.000   0.000   0.000     0.000        -1.000   0.000   0.000     0.000
    0.000   1.000   0.000     0.000         0.000  -1.000   0.000     0.000
    0.000   0.000   1.000    -4.838         0.000   0.000   1.000    -4.838
             OPERATION E(   1)                       OPERATION C(   2)
 DETERMINANT 1.; ROTATION(DEG)   0.      DETERMINANT 1.; ROTATION(DEG) 180.
 TRANSLA (  0.000    0.000   -4.838)     TRANSLA (  0.000    0.000   -4.838)
 uvw/hkl (  0.000    0.000    0.000)     uvw/hkl (  0.000    0.000    4.000)
 LOCATED (  0.000    0.000    0.000)     LOCATED (  0.000    0.000    0.000)

   NO.  99 INVERSE  99    ORDER   2        NO. 100 INVERSE 100    ORDER   2
    1.000   0.000   0.000     0.000        -1.000   0.000   0.000     0.000
    0.000  -1.000   0.000     0.000         0.000   1.000   0.000     0.000
    0.000   0.000  -1.000    -4.838         0.000   0.000  -1.000    -4.838
             OPERATION C(   2)                       OPERATION C(   2)
 DETERMINANT 1.; ROTATION(DEG) 180.      DETERMINANT 1.; ROTATION(DEG) 180.
 TRANSLA (  0.000    0.000    0.000)     TRANSLA (  0.000    0.000    0.000)
 uvw/hkl (  4.000    0.000    0.000)     uvw/hkl (  0.000   -4.000    0.000)
 LOCATED (  0.000    0.000   -2.419)     LOCATED (  0.000    0.000   -2.419)

   NO. 101 INVERSE 150    ORDER   3        NO. 102 INVERSE 437    ORDER   3
    0.000   0.000   1.000     0.000         0.000   1.000   0.000     0.000
    1.000   0.000   0.000     0.000         0.000   0.000   1.000     0.000
    0.000   1.000   0.000    -4.838         1.000   0.000   0.000    -4.838
             OPERATION C(   3)                       OPERATION C(   3)
 DETERMINANT 1.; ROTATION(DEG) 120.      DETERMINANT 1.; ROTATION(DEG) 120.
 TRANSLA ( -1.613   -1.613   -1.613)     TRANSLA ( -1.613   -1.613   -1.613)
 uvw/hkl (  1.000    1.000    1.000)     uvw/hkl (  1.000    1.000    1.000)
 LOCATED (  1.613    3.225    0.000)     LOCATED (  3.225    1.613    0.000)

   NO. 103 INVERSE 152    ORDER   3        NO. 104 INVERSE 871    ORDER   3
    0.000   0.000  -1.000     0.000         0.000  -1.000   0.000     0.000
   -1.000   0.000   0.000     0.000         0.000   0.000   1.000     0.000
    0.000   1.000   0.000    -4.838        -1.000   0.000   0.000    -4.838
             OPERATION C(   3)                       OPERATION C(   3)
 DETERMINANT 1.; ROTATION(DEG) 120.      DETERMINANT 1.; ROTATION(DEG) 120.
 TRANSLA (  1.613   -1.613   -1.613)     TRANSLA (  1.613   -1.613   -1.613)
 uvw/hkl ( -1.000    1.000    1.000)     uvw/hkl ( -1.000    1.000    1.000)
 LOCATED ( -1.613    3.225    0.000)     LOCATED ( -3.225    1.613    0.000)

   NO. 105 INVERSE 298    ORDER   3        NO. 106 INVERSE 441    ORDER   3
    0.000   0.000   1.000     0.000         0.000  -1.000   0.000     0.000
   -1.000   0.000   0.000     0.000         0.000   0.000  -1.000     0.000
    0.000  -1.000   0.000    -4.838         1.000   0.000   0.000    -4.838
             OPERATION C(   3)                       OPERATION C(   3)
 DETERMINANT 1.; ROTATION(DEG) 120.      DETERMINANT 1.; ROTATION(DEG) 120.
 TRANSLA ( -1.613    1.613   -1.613)     TRANSLA ( -1.613    1.613   -1.613)
 uvw/hkl (  1.000   -1.000    1.000)     uvw/hkl (  1.000   -1.000    1.000)
 LOCATED (  1.613   -3.225    0.000)     LOCATED (  3.225   -1.613    0.000)

   NO. 107 INVERSE 300    ORDER   3        NO. 108 INVERSE 875    ORDER   3
    0.000   0.000  -1.000     0.000         0.000   1.000   0.000     0.000
    1.000   0.000   0.000     0.000         0.000   0.000  -1.000     0.000
    0.000  -1.000   0.000    -4.838        -1.000   0.000   0.000    -4.838
             OPERATION C(   3)                       OPERATION C(   3)
 DETERMINANT 1.; ROTATION(DEG) 120.      DETERMINANT 1.; ROTATION(DEG) 120.
 TRANSLA (  1.613    1.613   -1.613)     TRANSLA (  1.613    1.613   -1.613)
 uvw/hkl ( -1.000   -1.000    1.000)     uvw/hkl ( -1.000   -1.000    1.000)
 LOCATED ( -1.613   -3.225    0.000)     LOCATED ( -3.225   -1.613    0.000)

   NO. 109 INVERSE 109    ORDER   2        NO. 110 INVERSE 110    ORDER   2
    0.000  -1.000   0.000     0.000         0.000   1.000   0.000     0.000
   -1.000   0.000   0.000     0.000         1.000   0.000   0.000     0.000
    0.000   0.000  -1.000    -4.838         0.000   0.000  -1.000    -4.838
             OPERATION C(   2)                       OPERATION C(   2)
 DETERMINANT 1.; ROTATION(DEG) 180.      DETERMINANT 1.; ROTATION(DEG) 180.
 TRANSLA (  0.000    0.000    0.000)     TRANSLA (  0.000    0.000    0.000)
 uvw/hkl (  2.000   -2.000    0.000)     uvw/hkl ( -2.000   -2.000    0.000)
 LOCATED (  0.000    0.000   -2.419)     LOCATED (  0.000    0.000   -2.419)

   NO. 111 INVERSE  64    ORDER   4        NO. 112 INVERSE  63    ORDER   4
    0.000   1.000   0.000     0.000         0.000  -1.000   0.000     0.000
   -1.000   0.000   0.000     0.000         1.000   0.000   0.000     0.000
    0.000   0.000   1.000    -4.838         0.000   0.000   1.000    -4.838
             OPERATION C(   4)                       OPERATION C(   4)
 DETERMINANT 1.; ROTATION(DEG)  90.      DETERMINANT 1.; ROTATION(DEG)  90.
 TRANSLA (  0.000    0.000   -4.838)     TRANSLA (  0.000    0.000   -4.838)
 uvw/hkl (  0.000    0.000    2.000)     uvw/hkl (  0.000    0.000    2.000)
 LOCATED (  0.000    0.000    0.000)     LOCATED (  0.000    0.000    0.000)

   NO. 113 INVERSE 305    ORDER   2        NO. 114 INVERSE 882    ORDER   2
   -1.000   0.000   0.000     0.000         0.000   0.000  -1.000     0.000
    0.000   0.000  -1.000     0.000         0.000  -1.000   0.000     0.000
    0.000  -1.000   0.000    -4.838        -1.000   0.000   0.000    -4.838
             OPERATION C(   2)                       OPERATION C(   2)
 DETERMINANT 1.; ROTATION(DEG) 180.      DETERMINANT 1.; ROTATION(DEG) 180.
 TRANSLA (  0.000    2.419   -2.419)     TRANSLA (  2.419    0.000   -2.419)
 uvw/hkl (  0.000   -2.000    2.000)     uvw/hkl ( -2.000    0.000    2.000)
 LOCATED (  0.000   -2.419    0.000)     LOCATED ( -2.419    0.000    0.000)

   NO. 115 INVERSE 309    ORDER   4        NO. 116 INVERSE 454    ORDER   4
    1.000   0.000   0.000     0.000         0.000   0.000  -1.000     0.000
    0.000   0.000   1.000     0.000         0.000   1.000   0.000     0.000
    0.000  -1.000   0.000    -4.838         1.000   0.000   0.000    -4.838
             OPERATION C(   4)                       OPERATION C(   4)
 DETERMINANT 1.; ROTATION(DEG)  90.      DETERMINANT 1.; ROTATION(DEG)  90.
 TRANSLA (  0.000    0.000    0.000)     TRANSLA ( -0.000    0.000    0.000)
 uvw/hkl (  2.000    0.000    0.000)     uvw/hkl (  0.000   -2.000    0.000)
 LOCATED (  0.000   -2.419   -2.419)     LOCATED (  2.419    0.000   -2.419)

   NO. 117 INVERSE 163    ORDER   4        NO. 118 INVERSE 884    ORDER   4
    1.000   0.000   0.000     0.000         0.000   0.000   1.000     0.000
    0.000   0.000  -1.000     0.000         0.000   1.000   0.000     0.000
    0.000   1.000   0.000    -4.838        -1.000   0.000   0.000    -4.838
             OPERATION C(   4)                       OPERATION C(   4)
 DETERMINANT 1.; ROTATION(DEG)  90.      DETERMINANT 1.; ROTATION(DEG)  90.
 TRANSLA (  0.000   -0.000    0.000)     TRANSLA (  0.000    0.000    0.000)
 uvw/hkl (  2.000    0.000    0.000)     uvw/hkl (  0.000   -2.000    0.000)
 LOCATED (  0.000    2.419   -2.419)     LOCATED ( -2.419    0.000   -2.419)

   NO. 119 INVERSE 167    ORDER   2        NO. 120 INVERSE 456    ORDER   2
   -1.000   0.000   0.000     0.000         0.000   0.000   1.000     0.000
    0.000   0.000   1.000     0.000         0.000  -1.000   0.000     0.000
    0.000   1.000   0.000    -4.838         1.000   0.000   0.000    -4.838
             OPERATION C(   2)                       OPERATION C(   2)
 DETERMINANT 1.; ROTATION(DEG) 180.      DETERMINANT 1.; ROTATION(DEG) 180.
 TRANSLA (  0.000   -2.419   -2.419)     TRANSLA ( -2.419    0.000   -2.419)
 uvw/hkl (  0.000    2.000    2.000)     uvw/hkl (  2.000    0.000    2.000)
 LOCATED (  0.000    2.419    0.000)     LOCATED (  2.419    0.000    0.000)

   NO. 121 INVERSE 121    ORDER   2        NO. 122 INVERSE 122    ORDER   2
   -1.000   0.000   0.000     0.000         1.000   0.000   0.000     0.000
    0.000  -1.000   0.000     0.000         0.000   1.000   0.000     0.000
    0.000   0.000  -1.000    -4.838         0.000   0.000  -1.000    -4.838
             OPERATION I(   2)                       OPERATION M(   2)
 DETERMINANT-1.; ROTATION(DEG) 180.      DETERMINANT-1.; ROTATION(DEG)   0.
 TRANSLA (  0.000    0.000    0.000)     TRANSLA (  0.000    0.000    0.000)
 uvw/hkl (  0.000    0.000    0.000)     uvw/hkl (  0.000    0.000   -2.000)
 LOCATED (  0.000    0.000   -2.419)     LOCATED (  0.000    0.000   -2.419)

   NO. 123 INVERSE  75    ORDER   2        NO. 124 INVERSE  76    ORDER   2
   -1.000   0.000   0.000     0.000         1.000   0.000   0.000     0.000
    0.000   1.000   0.000     0.000         0.000  -1.000   0.000     0.000
    0.000   0.000   1.000    -4.838         0.000   0.000   1.000    -4.838
             OPERATION M(   2)                       OPERATION M(   2)
 DETERMINANT-1.; ROTATION(DEG)   0.      DETERMINANT-1.; ROTATION(DEG)   0.
 TRANSLA (  0.000    0.000   -4.838)     TRANSLA (  0.000    0.000   -4.838)
 uvw/hkl (  2.000    0.000    0.000)     uvw/hkl (  0.000   -2.000    0.000)
 LOCATED (  0.000    0.000    0.000)     LOCATED (  0.000    0.000    0.000)

   NO. 125 INVERSE 318    ORDER   6        NO. 126 INVERSE 893    ORDER   6
    0.000   0.000  -1.000     0.000         0.000  -1.000   0.000     0.000
   -1.000   0.000   0.000     0.000         0.000   0.000  -1.000     0.000
    0.000  -1.000   0.000    -4.838        -1.000   0.000   0.000    -4.838
             OPERATION S(   6)                       OPERATION S(   6)
 DETERMINANT-1.; ROTATION(DEG)  60.      DETERMINANT-1.; ROTATION(DEG)  60.
 TRANSLA ( -0.000    0.000    0.000)     TRANSLA (  0.000   -0.000    0.000)
 uvw/hkl ( -1.000    1.000    1.000)     uvw/hkl (  1.000   -1.000    1.000)
 LOCATED (  0.000   -0.000    0.000)     LOCATED ( -0.000    0.000    0.000)

   NO. 127 INVERSE 320    ORDER   6        NO. 128 INVERSE 463    ORDER   6
    0.000   0.000   1.000     0.000         0.000   1.000   0.000     0.000
    1.000   0.000   0.000     0.000         0.000   0.000  -1.000     0.000
    0.000  -1.000   0.000    -4.838         1.000   0.000   0.000    -4.838
             OPERATION S(   6)                       OPERATION S(   6)
 DETERMINANT-1.; ROTATION(DEG)  60.      DETERMINANT-1.; ROTATION(DEG)  60.
 TRANSLA (  0.000    0.000    0.000)     TRANSLA ( -0.000   -0.000    0.000)
[...]
 TRANSLA (  0.000    0.000   -0.000)     TRANSLA (  0.000    0.000    0.000)
 uvw/hkl (  0.000    2.000    2.000)     uvw/hkl ( -2.000    0.000    2.000)
 LOCATED ( -2.419   -4.838    0.000)     LOCATED ( -4.838   -2.419   -0.000)

   NO.1247 INVERSE 719    ORDER   2        NO.1248 INVERSE 720    ORDER   2
    1.000   0.000   0.000    -4.838         0.000   0.000  -1.000    -4.838
    0.000   0.000  -1.000    -4.838         0.000   1.000   0.000    -4.838
    0.000  -1.000   0.000     4.838        -1.000   0.000   0.000     4.838
             OPERATION M(   2)                       OPERATION M(   2)
 DETERMINANT-1.; ROTATION(DEG)   0.      DETERMINANT-1.; ROTATION(DEG)   0.
 TRANSLA ( -4.838   -4.838    4.838)     TRANSLA ( -4.838   -4.838    4.838)
 uvw/hkl (  0.000   -1.000   -1.000)     uvw/hkl (  1.000    0.000    1.000)
 LOCATED (  0.000    0.000    0.000)     LOCATED (  0.000    0.000    0.000)

   NO.1249 INVERSE 625    ORDER   1        NO.1250 INVERSE1202    ORDER   2
    1.000   0.000   0.000    -4.838        -1.000   0.000   0.000    -4.838
    0.000   1.000   0.000    -4.838         0.000  -1.000   0.000    -4.838
    0.000   0.000   1.000    -4.838         0.000   0.000   1.000    -4.838
             OPERATION E(   1)                       OPERATION C(   2)
 DETERMINANT 1.; ROTATION(DEG)   0.      DETERMINANT 1.; ROTATION(DEG) 180.
 TRANSLA ( -4.838   -4.838   -4.838)     TRANSLA (  0.000    0.000   -4.838)
 uvw/hkl (  0.000    0.000    0.000)     uvw/hkl (  0.000    0.000    4.000)
 LOCATED (  0.000    0.000    0.000)     LOCATED ( -2.419   -2.419    0.000)

   NO.1251 INVERSE 819    ORDER   2        NO.1252 INVERSE1108    ORDER   2
    1.000   0.000   0.000    -4.838        -1.000   0.000   0.000    -4.838
    0.000  -1.000   0.000    -4.838         0.000   1.000   0.000    -4.838
    0.000   0.000  -1.000    -4.838         0.000   0.000  -1.000    -4.838
             OPERATION C(   2)                       OPERATION C(   2)
 DETERMINANT 1.; ROTATION(DEG) 180.      DETERMINANT 1.; ROTATION(DEG) 180.
 TRANSLA ( -4.838    0.000    0.000)     TRANSLA (  0.000   -4.838    0.000)
 uvw/hkl (  4.000    0.000    0.000)     uvw/hkl (  0.000   -4.000    0.000)
 LOCATED (  0.000   -2.419   -2.419)     LOCATED ( -2.419    0.000   -2.419)

   NO.1253 INVERSE 630    ORDER   3        NO.1254 INVERSE 629    ORDER   3
    0.000   0.000   1.000    -4.838         0.000   1.000   0.000    -4.838
    1.000   0.000   0.000    -4.838         0.000   0.000   1.000    -4.838
    0.000   1.000   0.000    -4.838         1.000   0.000   0.000    -4.838
             OPERATION C(   3)                       OPERATION C(   3)
 DETERMINANT 1.; ROTATION(DEG) 120.      DETERMINANT 1.; ROTATION(DEG) 120.
 TRANSLA ( -4.838   -4.838   -4.838)     TRANSLA ( -4.838   -4.838   -4.838)
 uvw/hkl (  1.000    1.000    1.000)     uvw/hkl (  1.000    1.000    1.000)
 LOCATED (  0.000    0.000    0.000)     LOCATED (  0.000    0.000    0.000)

   NO.1255 INVERSE1112    ORDER   3        NO.1256 INVERSE1207    ORDER   3
    0.000   0.000  -1.000    -4.838         0.000  -1.000   0.000    -4.838
   -1.000   0.000   0.000    -4.838         0.000   0.000   1.000    -4.838
    0.000   1.000   0.000    -4.838        -1.000   0.000   0.000    -4.838
             OPERATION C(   3)                       OPERATION C(   3)
 DETERMINANT 1.; ROTATION(DEG) 120.      DETERMINANT 1.; ROTATION(DEG) 120.
 TRANSLA (  1.613   -1.613   -1.613)     TRANSLA (  1.613   -1.613   -1.613)
 uvw/hkl ( -1.000    1.000    1.000)     uvw/hkl ( -1.000    1.000    1.000)
 LOCATED ( -6.451    3.225    0.000)     LOCATED ( -3.225   -3.225    0.000)

   NO.1257 INVERSE1210    ORDER   3        NO.1258 INVERSE 825    ORDER   3
    0.000   0.000   1.000    -4.838         0.000  -1.000   0.000    -4.838
   -1.000   0.000   0.000    -4.838         0.000   0.000  -1.000    -4.838
    0.000  -1.000   0.000    -4.838         1.000   0.000   0.000    -4.838
             OPERATION C(   3)                       OPERATION C(   3)
 DETERMINANT 1.; ROTATION(DEG) 120.      DETERMINANT 1.; ROTATION(DEG) 120.
 TRANSLA ( -1.613    1.613   -1.613)     TRANSLA ( -1.613    1.613   -1.613)
 uvw/hkl (  1.000   -1.000    1.000)     uvw/hkl (  1.000   -1.000    1.000)
 LOCATED ( -3.225   -3.225    0.000)     LOCATED (  3.225   -6.451    0.000)

   NO.1259 INVERSE 828    ORDER   3        NO.1260 INVERSE1115    ORDER   3
    0.000   0.000  -1.000    -4.838         0.000   1.000   0.000    -4.838
    1.000   0.000   0.000    -4.838         0.000   0.000  -1.000    -4.838
    0.000  -1.000   0.000    -4.838        -1.000   0.000   0.000    -4.838
             OPERATION C(   3)                       OPERATION C(   3)
 DETERMINANT 1.; ROTATION(DEG) 120.      DETERMINANT 1.; ROTATION(DEG) 120.
 TRANSLA ( -1.613   -1.613    1.613)     TRANSLA ( -1.613   -1.613    1.613)
 uvw/hkl ( -1.000   -1.000    1.000)     uvw/hkl ( -1.000   -1.000    1.000)
 LOCATED ( -3.225   -6.451    0.000)     LOCATED ( -6.451   -3.225    0.000)

   NO.1261 INVERSE1261    ORDER   2        NO.1262 INVERSE 686    ORDER   2
    0.000  -1.000   0.000    -4.838         0.000   1.000   0.000    -4.838
   -1.000   0.000   0.000    -4.838         1.000   0.000   0.000    -4.838
    0.000   0.000  -1.000    -4.838         0.000   0.000  -1.000    -4.838
             OPERATION C(   2)                       OPERATION C(   2)
 DETERMINANT 1.; ROTATION(DEG) 180.      DETERMINANT 1.; ROTATION(DEG) 180.
 TRANSLA (  0.000    0.000    0.000)     TRANSLA ( -4.838   -4.838    0.000)
 uvw/hkl (  2.000   -2.000    0.000)     uvw/hkl ( -2.000   -2.000    0.000)
 LOCATED ( -4.838    0.000   -2.419)     LOCATED (  0.000    0.000   -2.419)

   NO.1263 INVERSE1072    ORDER   4        NO.1264 INVERSE 783    ORDER   4
    0.000   1.000   0.000    -4.838         0.000  -1.000   0.000    -4.838
   -1.000   0.000   0.000    -4.838         1.000   0.000   0.000    -4.838
    0.000   0.000   1.000    -4.838         0.000   0.000   1.000    -4.838
             OPERATION C(   4)                       OPERATION C(   4)
 DETERMINANT 1.; ROTATION(DEG)  90.      DETERMINANT 1.; ROTATION(DEG)  90.
 TRANSLA (  0.000    0.000   -4.838)     TRANSLA (  0.000    0.000   -4.838)
 uvw/hkl (  0.000    0.000    2.000)     uvw/hkl (  0.000    0.000    2.000)
 LOCATED ( -4.838    0.000    0.000)     LOCATED (  0.000   -4.838    0.000)

   NO.1265 INVERSE1265    ORDER   2        NO.1266 INVERSE1266    ORDER   2
   -1.000   0.000   0.000    -4.838         0.000   0.000  -1.000    -4.838
    0.000   0.000  -1.000    -4.838         0.000  -1.000   0.000    -4.838
    0.000  -1.000   0.000    -4.838        -1.000   0.000   0.000    -4.838
             OPERATION C(   2)                       OPERATION C(   2)
 DETERMINANT 1.; ROTATION(DEG) 180.      DETERMINANT 1.; ROTATION(DEG) 180.
 TRANSLA (  0.000    0.000    0.000)     TRANSLA (  0.000    0.000    0.000)
 uvw/hkl (  0.000   -2.000    2.000)     uvw/hkl ( -2.000    0.000    2.000)
 LOCATED ( -2.419   -4.838    0.000)     LOCATED ( -4.838   -2.419    0.000)

   NO.1267 INVERSE 789    ORDER   4        NO.1268 INVERSE 694    ORDER   4
    1.000   0.000   0.000    -4.838         0.000   0.000  -1.000    -4.838
    0.000   0.000   1.000    -4.838         0.000   1.000   0.000    -4.838
    0.000  -1.000   0.000    -4.838         1.000   0.000   0.000    -4.838
             OPERATION C(   4)                       OPERATION C(   4)
 DETERMINANT 1.; ROTATION(DEG)  90.      DETERMINANT 1.; ROTATION(DEG)  90.
 TRANSLA ( -4.838    0.000    0.000)     TRANSLA (  0.000   -4.838    0.000)
 uvw/hkl (  2.000    0.000    0.000)     uvw/hkl (  0.000   -2.000    0.000)
 LOCATED (  0.000   -4.838    0.000)     LOCATED (  0.000    0.000   -4.838)

   NO.1269 INVERSE 691    ORDER   4        NO.1270 INVERSE1076    ORDER   4
    1.000   0.000   0.000    -4.838         0.000   0.000   1.000    -4.838
    0.000   0.000  -1.000    -4.838         0.000   1.000   0.000    -4.838
    0.000   1.000   0.000    -4.838        -1.000   0.000   0.000    -4.838
             OPERATION C(   4)                       OPERATION C(   4)
 DETERMINANT 1.; ROTATION(DEG)  90.      DETERMINANT 1.; ROTATION(DEG)  90.
 TRANSLA ( -4.838    0.000    0.000)     TRANSLA (  0.000   -4.838    0.000)
 uvw/hkl (  2.000    0.000    0.000)     uvw/hkl (  0.000   -2.000    0.000)
 LOCATED (  0.000    0.000   -4.838)     LOCATED ( -4.838    0.000    0.000)

   NO.1271 INVERSE1079    ORDER   2        NO.1272 INVERSE 792    ORDER   2
   -1.000   0.000   0.000    -4.838         0.000   0.000   1.000    -4.838
    0.000   0.000   1.000    -4.838         0.000  -1.000   0.000    -4.838
    0.000   1.000   0.000    -4.838         1.000   0.000   0.000    -4.838
             OPERATION C(   2)                       OPERATION C(   2)
 DETERMINANT 1.; ROTATION(DEG) 180.      DETERMINANT 1.; ROTATION(DEG) 180.
 TRANSLA (  0.000   -4.838   -4.838)     TRANSLA ( -4.838    0.000   -4.838)
 uvw/hkl (  0.000    2.000    2.000)     uvw/hkl (  2.000    0.000    2.000)
 LOCATED ( -2.419    0.000    0.000)     LOCATED (  0.000   -2.419    0.000)

   NO.1273 INVERSE1273    ORDER   2        NO.1274 INVERSE 698    ORDER   2
   -1.000   0.000   0.000    -4.838         1.000   0.000   0.000    -4.838
    0.000  -1.000   0.000    -4.838         0.000   1.000   0.000    -4.838
    0.000   0.000  -1.000    -4.838         0.000   0.000  -1.000    -4.838
             OPERATION I(   2)                       OPERATION M(   2)
 DETERMINANT-1.; ROTATION(DEG) 180.      DETERMINANT-1.; ROTATION(DEG)   0.
 TRANSLA (  0.000    0.000    0.000)     TRANSLA ( -4.838   -4.838    0.000)
 uvw/hkl (  0.000    0.000    0.000)     uvw/hkl (  0.000    0.000   -2.000)
 LOCATED ( -2.419   -2.419   -2.419)     LOCATED (  0.000    0.000   -2.419)

   NO.1275 INVERSE1083    ORDER   2        NO.1276 INVERSE 796    ORDER   2
   -1.000   0.000   0.000    -4.838         1.000   0.000   0.000    -4.838
    0.000   1.000   0.000    -4.838         0.000  -1.000   0.000    -4.838
    0.000   0.000   1.000    -4.838         0.000   0.000   1.000    -4.838
             OPERATION M(   2)                       OPERATION M(   2)
 DETERMINANT-1.; ROTATION(DEG)   0.      DETERMINANT-1.; ROTATION(DEG)   0.
 TRANSLA (  0.000   -4.838   -4.838)     TRANSLA ( -4.838    0.000   -4.838)
 uvw/hkl (  2.000    0.000    0.000)     uvw/hkl (  0.000   -2.000    0.000)
 LOCATED ( -2.419    0.000    0.000)     LOCATED (  0.000   -2.419    0.000)

   NO.1277 INVERSE1278    ORDER   6        NO.1278 INVERSE1277    ORDER   6
    0.000   0.000  -1.000    -4.838         0.000  -1.000   0.000    -4.838
   -1.000   0.000   0.000    -4.838         0.000   0.000  -1.000    -4.838
    0.000  -1.000   0.000    -4.838        -1.000   0.000   0.000    -4.838
             OPERATION S(   6)                       OPERATION S(   6)
 DETERMINANT-1.; ROTATION(DEG)  60.      DETERMINANT-1.; ROTATION(DEG)  60.
 TRANSLA (  0.000    0.000    0.000)     TRANSLA (  0.000    0.000    0.000)
 uvw/hkl ( -1.000    1.000    1.000)     uvw/hkl (  1.000   -1.000    1.000)
 LOCATED ( -4.838    0.000    0.000)     LOCATED (  0.000   -4.838    0.000)

   NO.1279 INVERSE 800    ORDER   6        NO.1280 INVERSE 703    ORDER   6
    0.000   0.000   1.000    -4.838         0.000   1.000   0.000    -4.838
    1.000   0.000   0.000    -4.838         0.000   0.000  -1.000    -4.838
    0.000  -1.000   0.000    -4.838         1.000   0.000   0.000    -4.838
             OPERATION S(   6)                       OPERATION S(   6)
 DETERMINANT-1.; ROTATION(DEG)  60.      DETERMINANT-1.; ROTATION(DEG)  60.
 TRANSLA (  0.000    0.000   -0.000)     TRANSLA (  0.000   -0.000    0.000)
 uvw/hkl (  1.000    1.000    1.000)     uvw/hkl ( -1.000   -1.000    1.000)
 LOCATED ( -4.838   -9.676    0.000)     LOCATED ( -9.676   -4.838   -0.000)

   NO.1281 INVERSE 706    ORDER   6        NO.1282 INVERSE1089    ORDER   6
    0.000   0.000  -1.000    -4.838         0.000   1.000   0.000    -4.838
    1.000   0.000   0.000    -4.838         0.000   0.000   1.000    -4.838
    0.000   1.000   0.000    -4.838        -1.000   0.000   0.000    -4.838
             OPERATION S(   6)                       OPERATION S(   6)
 DETERMINANT-1.; ROTATION(DEG)  60.      DETERMINANT-1.; ROTATION(DEG)  60.
 TRANSLA ( -0.000    0.000    0.000)     TRANSLA (  0.000    0.000   -0.000)
 uvw/hkl ( -1.000   -1.000    1.000)     uvw/hkl (  1.000    1.000    1.000)
 LOCATED ( -4.838   -9.676    0.000)     LOCATED ( -9.676   -4.838    0.000)

   NO.1283 INVERSE1092    ORDER   6        NO.1284 INVERSE 803    ORDER   6
    0.000   0.000   1.000    -4.838         0.000  -1.000   0.000    -4.838
   -1.000   0.000   0.000    -4.838         0.000   0.000   1.000    -4.838
    0.000   1.000   0.000    -4.838         1.000   0.000   0.000    -4.838
             OPERATION S(   6)                       OPERATION S(   6)
 DETERMINANT-1.; ROTATION(DEG)  60.      DETERMINANT-1.; ROTATION(DEG)  60.
 TRANSLA (  0.000   -0.000    0.000)     TRANSLA ( -0.000    0.000    0.000)
 uvw/hkl (  1.000   -1.000    1.000)     uvw/hkl ( -1.000    1.000    1.000)
 LOCATED ( -4.838    0.000    0.000)     LOCATED (  0.000   -4.838    0.000)

   NO.1285 INVERSE 661    ORDER   2        NO.1286 INVERSE1238    ORDER   2
    0.000   1.000   0.000    -4.838         0.000  -1.000   0.000    -4.838
    1.000   0.000   0.000    -4.838        -1.000   0.000   0.000    -4.838
    0.000   0.000   1.000    -4.838         0.000   0.000   1.000    -4.838
             OPERATION M(   2)                       OPERATION M(   2)
 DETERMINANT-1.; ROTATION(DEG)   0.      DETERMINANT-1.; ROTATION(DEG)   0.
 TRANSLA ( -4.838   -4.838   -4.838)     TRANSLA (  0.000    0.000   -4.838)
 uvw/hkl (  1.000   -1.000    0.000)     uvw/hkl (  1.000    1.000    0.000)
 LOCATED (  0.000    0.000    0.000)     LOCATED ( -4.838    0.000    0.000)

   NO.1287 INVERSE 856    ORDER   4        NO.1288 INVERSE1143    ORDER   4
    0.000  -1.000   0.000    -4.838         0.000   1.000   0.000    -4.838
    1.000   0.000   0.000    -4.838        -1.000   0.000   0.000    -4.838
    0.000   0.000  -1.000    -4.838         0.000   0.000  -1.000    -4.838
             OPERATION S(   4)                       OPERATION S(   4)
 DETERMINANT-1.; ROTATION(DEG)  90.      DETERMINANT-1.; ROTATION(DEG)  90.
 TRANSLA (  0.000    0.000    0.000)     TRANSLA (  0.000    0.000    0.000)
 uvw/hkl (  0.000    0.000    2.000)     uvw/hkl (  0.000    0.000    2.000)
 LOCATED (  0.000   -4.838   -2.419)     LOCATED ( -4.838    0.000   -2.419)

   NO.1289 INVERSE 665    ORDER   2        NO.1290 INVERSE 666    ORDER   2
    1.000   0.000   0.000    -4.838         0.000   0.000   1.000    -4.838
    0.000   0.000   1.000    -4.838         0.000   1.000   0.000    -4.838
    0.000   1.000   0.000    -4.838         1.000   0.000   0.000    -4.838
             OPERATION M(   2)                       OPERATION M(   2)
 DETERMINANT-1.; ROTATION(DEG)   0.      DETERMINANT-1.; ROTATION(DEG)   0.
 TRANSLA ( -4.838   -4.838   -4.838)     TRANSLA ( -4.838   -4.838   -4.838)
 uvw/hkl (  0.000   -1.000    1.000)     uvw/hkl (  1.000    0.000   -1.000)
 LOCATED (  0.000    0.000    0.000)     LOCATED (  0.000    0.000    0.000)

   NO.1291 INVERSE1149    ORDER   4        NO.1292 INVERSE1246    ORDER   4
   -1.000   0.000   0.000    -4.838         0.000   0.000   1.000    -4.838
    0.000   0.000  -1.000    -4.838         0.000  -1.000   0.000    -4.838
    0.000   1.000   0.000    -4.838        -1.000   0.000   0.000    -4.838
             OPERATION S(   4)                       OPERATION S(   4)
 DETERMINANT-1.; ROTATION(DEG)  90.      DETERMINANT-1.; ROTATION(DEG)  90.
 TRANSLA (  0.000    0.000    0.000)     TRANSLA (  0.000    0.000    0.000)
 uvw/hkl (  0.000   -2.000    2.000)     uvw/hkl (  2.000    0.000    2.000)
 LOCATED ( -2.419   -4.838    0.000)     LOCATED ( -4.838   -2.419    0.000)

   NO.1293 INVERSE1243    ORDER   4        NO.1294 INVERSE 860    ORDER   4
   -1.000   0.000   0.000    -4.838         0.000   0.000  -1.000    -4.838
    0.000   0.000   1.000    -4.838         0.000  -1.000   0.000    -4.838
    0.000  -1.000   0.000    -4.838         1.000   0.000   0.000    -4.838
             OPERATION S(   4)                       OPERATION S(   4)
 DETERMINANT-1.; ROTATION(DEG)  90.      DETERMINANT-1.; ROTATION(DEG)  90.
 TRANSLA (  0.000    0.000    0.000)     TRANSLA (  0.000    0.000    0.000)
 uvw/hkl (  0.000    2.000    2.000)     uvw/hkl ( -2.000    0.000    2.000)
 LOCATED ( -2.419   -4.838    0.000)     LOCATED ( -4.838   -2.419    0.000)

   NO.1295 INVERSE 863    ORDER   2        NO.1296 INVERSE1152    ORDER   2
    1.000   0.000   0.000    -4.838         0.000   0.000  -1.000    -4.838
    0.000   0.000  -1.000    -4.838         0.000   1.000   0.000    -4.838
    0.000  -1.000   0.000    -4.838        -1.000   0.000   0.000    -4.838
             OPERATION M(   2)                       OPERATION M(   2)
 DETERMINANT-1.; ROTATION(DEG)   0.      DETERMINANT-1.; ROTATION(DEG)   0.
 TRANSLA ( -4.838    0.000    0.000)     TRANSLA (  0.000   -4.838    0.000)
 uvw/hkl (  0.000   -1.000   -1.000)     uvw/hkl (  1.000    0.000    1.000)
 LOCATED (  0.000   -4.838    0.000)     LOCATED ( -4.838    0.000    0.000)


 *******************************************************************************
 * *************************************************************************** *
 * *                                                                         * *
 * *                       UNIFORM RANDOM SELECTION OF                       * *
 * *                SYMMETRY INDEPENDENT CONFIGURATIONS (SIC)                * *
 * *                 IN DISORDERED SYSTEMS / SOLID SOLUTIONS                 * *
 * *                                                                         * *
 * *                  Ph. D'Arco, S. Mustapha, M. Ferrabone,                 * *
 * *                   Y. Noel, M. De La Pierre & R. Dovesi.                 * *
 * *                J. Phys.: Condens. Matter 25, 355401 (2013)              * *
 * *                                                                         * *
 * *************************************************************************** *
 *******************************************************************************

 INFORMATION **** MCPHDSAM **** SEARCH FOR ALL THE  SIC

 *******************************************************************************
  SUBSTITUTIONS AT SITES (LABELS) : 
    1    2    3    4    5    6    7    8    9   10   11   12   13   14
   15   16   17   18   19   20   21   22   23   24   25   26   27
  **********************************            COMPOSITION :          1 /  27
  **********************************          NUMBER OF SIC :                1
 *******************************************************************************
 --->              1      SIC  FOUND AT TRY              1   -   CONFIGURATION 
   0   0   0   0   0   0   0   0   0   0   0   0   0   0   1   0   0   0   0   0
   0   0   0   0   0   0   0
   MULTIPLICITY     27   -   RANK          13   -   CANONICAL RANK           1
 *******************************************************************************
                   1      SIC  FOUND  AFTER              1       TRIES
 *******************************************************************************
 INFORMATION **** MCPHDSAM **** CONFRAND CALCULATION COMPLETE
 TTTTTTTTTTTTTTTTTTTTTTTTTTTTTT END         TELAPSE        3.42 TCPU        3.41
 EEEEEEEEEE TERMINATION  DATE 31 01 2023 TIME 18:27:17.9
Tue 31 Jan 2023 18:27:17 GMT
Contents of temporary directory:
total 648
-rw-r--r--  1 brunocamino  admin  330933 31 Jan 18:27 CONFIGURATIONS.DAT
SCF abnormal end - no wf written in fort.9
file CONFIGURATIONS.DAT saved as /Users/brunocamino/Desktop/Imperial/cmsg_icl/solid-solutions/data/crystal/cao_confrand.configurations
temporary directory /Users/brunocamino/crystal/tmp removed
