date Fri 10 Mar 2023 10:28:30 GMT
hostname MacBook-Pro-8
system Darwin MacBook-Pro-8 21.6.0 Darwin Kernel Version 21.6.0: Mon Aug 22 20:20:05 PDT 2022; root:xnu-8020.140.49~2/RELEASE_ARM64_T8101 arm64
user brunocamino
output data in /Users/brunocamino/Desktop/Imperial/cmsg_icl/solid-solutions/./data/crystal/testgeom_opt/CaMgO_testgeom_553.out
crystal executable in /Users/brunocamino/crystal
input data in /Users/brunocamino/Desktop/Imperial/cmsg_icl/solid-solutions/./data/crystal/testgeom_opt/CaMgO_testgeom_553.d12
temporary directory /Users/brunocamino/crystal/tmp
external geometry input from /Users/brunocamino/Desktop/Imperial/cmsg_icl/solid-solutions/./data/crystal/testgeom_opt/CaMgO_testgeom_553.gui
external geometry input saved in /Users/brunocamino/Desktop/Imperial/cmsg_icl/solid-solutions/./data/crystal/testgeom_opt/CaMgO_testgeom_553_inp.gui
Bulk 
EXTERNAL
EXTPRT
TESTGEOM
END

         
 *******************************************************************************
 *                                                                             *
 *                               CRYSTAL17                                     *
 *                      public : 1.0.1 - Feb 1st, 2017                         *
 *                       HTTP://WWW.CRYSTAL.UNITO.IT                           *
 *                                                                             *
 *                              MAIN AUTHORS                                   *
 *                                                                             *
 *  R. DOVESI(1,11), V.R. SAUNDERS(2), C. ROETTI(1,11), R. ORLANDO(1,11),      *
 *  C.M. ZICOVICH-WILSON(1,3), F. PASCALE(4), B. CIVALLERI(1,11),              *
 *  K. DOLL(5), N.M. HARRISON(2,6), I.J. BUSH(7), Ph. D'ARCO(8),               *
 *  M. LLUNELL(9), M. CAUSA'(10), Y. NOEL(8), L. MASCHIO(1,11), A. ERBA(1,11)  *
 *  M. RE'RAT(14), S. CASASSA(1,11)                                            *
 *                                                                             *
 *        CONTRIBUTIONS TO THE CODE HAVE ALSO BEEN GIVEN BY                    *
 *                                                                             *
 *  M. FERRABONE(1,11), M. DE LA PIERRE(1,11), M. FERRERO(1,11),               *
 *  J. BAIMA(1,11), E. ALBANESE(1,11), M.F. PEINTINGER(12), R. BAST(13),       *
 *  B. KIRTMAN(15), V. LACIVITA(1,11), R. DEMICHELIS(1,16)                     *
 *  G. BRANDEBURG(17), S. SALUSTRO(1,11), G. SANSONE(1,11)                     *
 *  M.T. RUGGIERO(18)                                                          *
 *                                                                             *
 * (1) THEORETICAL CHEMISTRY GROUP - UNIVERSITA' DI TORINO - TORINO (ITALY)    *

 * (2) COMPUTATIONAL SCIENCE & ENGINEERING DEPARTMENT - STFC DARESBURY (UK)    *
 * (3) UNIVERSIDAD AUTONOMA DEL ESTADO DE MORELOS - CUERNAVACA (MEXICO)        *
 * (4) UNIVERSITE' DE LORRAINE - NANCY (FRANCE)                                *
 * (5) UNIVERSITAET STUTTGART- STUTTGART (GERMANY)                             *
 * (6) IMPERIAL COLLEGE - LONDON (UK)                                          *
 * (7) OXFORD E-RESEARCH CENTRE - OXFORD (UK)                                  *
 * (8) UPMC - SORBONNE UNIVERSITES - PARIS (FRANCE)                            *
 * (9) UNIVERSIDAD DE BARCELONA - BARCELONA (SPAIN)                            *
 *(10) UNIVERSITA' DI NAPOLI "FEDERICO II" - NAPOLI (ITALY)                    *
 *(11) NIS - NANOSTRUCTURED INTERFACES AND SURFACES - TORINO (ITALY)           *
 *(12) MPI FUER CHEMISCHE ENERGIEKONVERSION - MUELHEIM AN DER RUHR (GERMANY)   *
 *(13) UNIVERSITY OF TROMSO - TROMSO (NORWAY)                                  *
 *(14) UNIVERSITE' DE PAU ET DES PAYS DE L'ADOUR - PAU (FRANCE)                *
 *(15) UNIVERSITY OF CALIFORNIA SANTA BARBARA - SANTA BARBARA (USA)            *
 *(16) CURTIN UNIVERSITY - PERTH (AUSTRALIA)                                   *
 *(17) UNIVERSITY COLLEGE LONDON - LONDON (UK)                                 *
 *(18) CAMBRIDGE UNIVERSITY - CAMBRIDGE (UK)                                   *
 *                                                                             *
 *******************************************************************************
 EEEEEEEEEE STARTING  DATE 10 03 2023 TIME 10:28:30.2
 Bulk                                                                            

 GEOMETRY INPUT FROM EXTERNAL FILE (FORTRAN UNIT 34)
 3D - CRYSTAL 

 *******************************************************************************
 LATTICE PARAMETERS  (ANGSTROMS AND DEGREES) - PRIMITIVE CELL
       A          B          C        ALPHA      BETA     GAMMA        VOLUME
    9.93059    9.90604    9.89724    60.08076  59.89891  59.89616    687.802333
 INFORMATION **** CHKGRP **** SPGR WITH NO INVERSION

 NUMBER OF IRREDUCIBLE ATOMS IN THE CELL:   54

 CARTESIAN COORDINATES (ANGSTROM) - IRREDUCIBLE ATOMS AND SYMMETRY RELATED

 AT.IRR.  AT  AT.N.          X                   Y                   Z
     1     1    20    2.474240353700E-02 -3.582122761900E-02 -3.079249479400E-02
     2     2    20    2.343654940246E+00  2.351878209507E+00 -6.101179552000E-02
     3     3    20   -2.329233267755E+00 -2.354912236109E+00 -6.139204445300E-02
     4     4    20    2.358821673156E+00 -5.676238138300E-02  2.338447501606E+00
     5     5    20    4.681549066362E+00  2.325920597047E+00  2.312359497448E+00
     6     6    20    5.206532800200E-02 -2.349055015606E+00  2.317794888593E+00
     7     7    20   -2.340671828242E+00 -6.951708288000E-02 -2.362439057386E+00
     8     8    20    4.449737891500E-02  2.340686919944E+00 -2.338331672329E+00
     9     9    12   -4.649464391405E+00 -2.312622884058E+00 -2.293733032720E+00
    10    10    20   -4.099866603300E-02  2.395986492051E+00  2.368097395163E+00
    11    11    20    2.296341406645E+00  4.714276175324E+00  2.348724928568E+00
    12    12    20   -2.385206667568E+00  3.693389765900E-02  2.351103407971E+00
    13    13    20    2.279366764762E+00  2.359309541072E+00  4.729939263945E+00
    14    14    20    4.650640243495E+00  4.694300727825E+00  4.724892215681E+00
    15    15    20   -6.664378296000E-03  1.372964372600E-02  4.725467928214E+00
    16    16    20   -2.365532914497E+00  2.372847772950E+00  3.456071883100E-02
    17    17    12    2.926849558100E-02  4.674700170959E+00 -3.525939063800E-02
    18    18    12   -4.729091510122E+00 -6.546232919900E-02 -7.186964119400E-02
    19    19    12   -1.925353116100E-02 -2.375939015818E+00 -2.288252811677E+00
    20    20    12    2.343663241972E+00 -6.199374547100E-02 -2.281306937640E+00
    21    21    12   -2.346825644456E+00 -4.576724942801E+00 -2.402654825410E+00
    22    22    12    2.268756620835E+00 -2.317644695973E+00 -7.158477057000E-02
    23    23    20    4.687218425621E+00 -2.803470756600E-02 -2.476166998000E-03
    24    24    12    8.934147509700E-02 -4.583878371907E+00 -2.697703253300E-02
    25    25    12   -2.333899954876E+00 -2.381472716852E+00 -4.654820519515E+00
    26    26    20    2.076921045300E-02 -5.326796443300E-02 -4.701764573060E+00
    27    27    20   -4.653378645837E+00 -4.654349517821E+00 -4.684264043433E+00
    28    28     8    9.022191952300E-02 -9.277852039600E-02 -2.333951975428E+00
    29    29     8    2.414039583342E+00  2.355200599998E+00 -2.329061184115E+00
    30    30     8   -2.347009468612E+00 -2.418885330595E+00 -2.381769477078E+00
    31    31     8    2.338851518460E+00 -8.564630453600E-02 -7.505455753600E-02
    32    32     8    4.754141147975E+00  2.333194139200E+00 -7.861815562600E-02
    33    33     8    8.003263548000E-02 -2.406645930701E+00 -6.090536625200E-02
    34    34     8    4.667932110656E+00 -7.929029744500E-02  2.337191495800E+00
    35    35     8    6.980849685719E+00  2.340179408172E+00  2.273573254199E+00
    36    36     8    2.429812929154E+00 -2.330933624880E+00  2.315232243309E+00
    37    37     8    1.196706023800E-02  2.405270672132E+00 -1.189723980200E-02
    38    38     8    2.245534372184E+00  4.758988582032E+00 -4.743162049300E-02
    39    39     8   -2.408504076533E+00 -6.566151090000E-04  2.793918668000E-03
    40    40     8    2.320310375873E+00  2.343302686483E+00  2.345528973259E+00
    41    41     8    4.661578012604E+00  4.675011792097E+00  2.344951639642E+00
    42    42     8   -2.128198245000E-03  3.307493010000E-03  2.344960798016E+00
    43    43     8    4.650737390488E+00  2.334780810404E+00  4.683462557122E+00
    44    44     8    7.093034602500E+00  4.676395552735E+00  4.767512066321E+00
    45    45     8    2.329526757747E+00 -9.662324783900E-02  4.752274009006E+00
    46    46     8   -9.796043573900E-02  4.667362976844E+00  2.368897363694E+00
    47    47     8    2.322124865732E+00  7.011983581299E+00  2.346987766746E+00
    48    48     8   -2.332323983621E+00  2.440305745003E+00  2.443074348463E+00
    49    49     8    2.253255685943E+00  4.758596295608E+00  4.784275474697E+00
    50    50     8    4.556706222499E+00  7.080912896288E+00  4.679753094261E+00
    51    51     8   -7.725750678100E-02  2.460223860063E+00  4.783260370038E+00
    52    52     8    4.685893562812E+00  4.668722602937E+00  7.081162045727E+00
    53    53     8    7.116705145999E+00  6.956411249146E+00  7.011704422305E+00
    54    54     8    2.206663018503E+00  2.372834549717E+00  7.003924677737E+00

 SYMMETRY CHANGED DURING OLD RUN :  INFORMATION ON SPACE GROUP LOST 
 NUMBER OF SYMMETRY OPERATORS         :    1
 *******************************************************************************
 LATTICE PARAMETERS (ANGSTROMS AND DEGREES) - BOHR = 0.5291772083 ANGSTROM
 PRIMITIVE CELL - CENTRING CODE 1/0 VOLUME=   687.802333 - DENSITY  3.300 g/cm^3
         A              B              C           ALPHA      BETA       GAMMA 
     9.93059329     9.90603769     9.89724426    60.080758  59.898909  59.896161
 *******************************************************************************
 ATOMS IN THE ASYMMETRIC UNIT   54 - ATOMS IN THE UNIT CELL:   54
     ATOM                 X/A                 Y/B                 Z/C    
 *******************************************************************************
      1 T  20 CA   -6.514707606543E-03  2.130117171678E-03  1.414190779519E-03
      2 T  20 CA   -4.466687301928E-03 -4.624060971831E-03  3.400228600733E-01
      3 T  20 CA   -5.498373141656E-03 -2.853273625542E-03 -3.304741040986E-01
      4 T  20 CA   -6.250335080437E-03  3.393674145795E-01 -1.869075762040E-03
      5 T  20 CA   -4.538351899324E-03  3.335384034724E-01  3.363603707148E-01
      6 T  20 CA   -5.994561232222E-03  3.365565084079E-01 -3.291724012597E-01
      7 T  20 CA   -5.752265163514E-03 -3.307689295821E-01 -4.126595418723E-03
      8 T  20 CA   -2.971966712468E-03 -3.305198745881E-01  3.369587752850E-01
      9 T  12 MG    4.516888096937E-03 -3.308658589515E-01 -3.344418967527E-01
     10 T  20 CA    3.422614677248E-01 -5.107380537338E-03 -9.649645254617E-04
     11 T  20 CA    3.388192598260E-01 -4.818069969248E-03  3.332391718938E-01
     12 T  20 CA    3.407013065274E-01 -5.571103162681E-03 -3.359744925182E-01
     13 T  20 CA    3.418590712940E-01  3.317450431987E-01 -5.825431498952E-03
     14 T  20 CA    3.381993094246E-01  3.342896029551E-01  3.309792474148E-01
     15 T  20 CA    3.379886469237E-01  3.353716559201E-01 -3.365992011437E-01
     16 T  20 CA    3.407168954070E-01 -3.359719431904E-01 -2.689029266501E-03
     17 T  12 MG    3.284003959863E-01 -3.339976124573E-01  3.380582419762E-01
     18 T  12 MG    3.285256735080E-01 -3.385383648995E-01 -3.383582331460E-01
     19 T  12 MG   -3.308367876806E-01  5.060615694929E-03 -7.617698614369E-03
     20 T  12 MG   -3.345438507918E-01  9.364386292541E-03  3.262315205035E-01
     21 T  12 MG   -3.292499225820E-01 -1.245054099289E-02 -3.231973954609E-01
     22 T  12 MG   -3.324980806378E-01  3.224751007743E-01  2.334310095096E-03
     23 T  20 CA   -3.374851886752E-01  3.369172606882E-01  3.339927120877E-01
     24 T  12 MG   -3.348479988893E-01  3.315601225562E-01 -3.186423538345E-01
     25 T  12 MG   -3.341869776862E-01 -3.287077421811E-01 -5.021248330572E-03
     26 T  20 CA   -3.401261257283E-01 -3.298523605023E-01  3.330985485128E-01
     27 T  20 CA   -3.322640427064E-01 -3.344402623606E-01 -3.312240185912E-01
     28 T   8 O    -1.792805446048E-01 -1.532918271019E-01  1.663433753172E-01
     29 T   8 O    -1.707889259308E-01 -1.614941439340E-01 -4.929014337453E-01
     30 T   8 O    -1.740342931001E-01 -1.649538903109E-01 -1.707819339650E-01
     31 T   8 O    -1.787617660941E-01  1.679682070676E-01  1.668120549820E-01
     32 T   8 O    -1.794916298254E-01  1.677819516322E-01 -4.873545928397E-01
     33 T   8 O    -1.815017966165E-01  1.731135083190E-01 -1.615871173092E-01
     34 T   8 O    -1.731325058532E-01 -4.940342837401E-01  1.620498361663E-01
     35 T   8 O    -1.707710195282E-01  4.941352420792E-01 -4.951222500238E-01
     36 T   8 O    -1.749842370186E-01 -4.949320456430E-01 -1.573432557402E-01
     37 T   8 O     1.696376168688E-01 -1.716275509284E-01  1.732738638578E-01
     38 T   8 O     1.749917989645E-01 -1.824371368891E-01 -4.962767632441E-01
     39 T   8 O     1.724505014689E-01 -1.719400174209E-01 -1.728034306069E-01
     40 T   8 O     1.679791592131E-01  1.658553719370E-01  1.660630648334E-01
     41 T   8 O     1.665504582395E-01  1.668075886598E-01 -4.998349918911E-01
     42 T   8 O     1.673890320542E-01  1.667588878376E-01 -1.671991989229E-01
     43 T   8 O     1.671599499018E-01  4.997138553003E-01  1.656373065159E-01
     44 T   8 O     1.652363560721E-01 -4.867859444683E-01 -4.983529491271E-01
     45 T   8 O     1.649114218178E-01 -4.878267698572E-01 -1.790065083253E-01
     46 T   8 O    -4.918037014563E-01 -1.712032572842E-01  1.569140493708E-01
     47 T   8 O    -4.994702810209E-01 -1.670581833446E-01  4.991056420580E-01
     48 T   8 O    -4.853261563340E-01 -1.667344188030E-01 -1.673143239610E-01
     49 T   8 O    -4.814886155831E-01  1.625433240340E-01  1.595685908407E-01
     50 T   8 O    -4.882837166868E-01  1.540530681410E-01  4.977062969126E-01
     51 T   8 O    -4.785679100920E-01  1.598676092096E-01 -1.712713482832E-01
     52 T   8 O    -4.983381275780E-01 -4.934117561594E-01  1.635910853160E-01
     53 T   8 O     4.857861473829E-01 -4.878264939955E-01 -4.941178524493E-01
     54 T   8 O    -4.900299058633E-01  4.876702519268E-01 -1.722890248517E-01

 T = ATOM BELONGING TO THE ASYMMETRIC UNIT
 *******************************************************************************
 * GEOMETRY EDITING - INPUT COORDINATES ARE GIVEN IN ANGSTROM         
 *******************************************************************************

 GCALCO - MAX INDICES DIRECT LATTICE VECTOR    14    15    15
 NO.OF VECTORS CREATED 6999 STARS 3500 RMAX   198.26528 BOHR

 GEOMETRY FOR WAVE FUNCTION - DIMENSIONALITY OF THE SYSTEM    3
 (NON PERIODIC DIRECTION: LATTICE PARAMETER FORMALLY SET TO 500)
 *******************************************************************************
 LATTICE PARAMETERS (ANGSTROMS AND DEGREES) - BOHR = 0.5291772083 ANGSTROM
 PRIMITIVE CELL - CENTRING CODE 1/0 VOLUME=   687.802333 - DENSITY  3.300 g/cm^3
         A              B              C           ALPHA      BETA       GAMMA 
     9.93059329     9.90603769     9.89724426    60.080758  59.898909  59.896161
 *******************************************************************************
 ATOMS IN THE ASYMMETRIC UNIT   54 - ATOMS IN THE UNIT CELL:   54
     ATOM                 X/A                 Y/B                 Z/C    
 *******************************************************************************
      1 T  20 CA   -6.514707606543E-03  2.130117171678E-03  1.414190779519E-03
      2 T  20 CA   -4.466687301927E-03 -4.624060971831E-03  3.400228600733E-01
      3 T  20 CA   -5.498373141656E-03 -2.853273625542E-03 -3.304741040986E-01
      4 T  20 CA   -6.250335080437E-03  3.393674145795E-01 -1.869075762040E-03
      5 T  20 CA   -4.538351899324E-03  3.335384034724E-01  3.363603707148E-01
      6 T  20 CA   -5.994561232222E-03  3.365565084079E-01 -3.291724012597E-01
      7 T  20 CA   -5.752265163514E-03 -3.307689295821E-01 -4.126595418723E-03
      8 T  20 CA   -2.971966712468E-03 -3.305198745881E-01  3.369587752850E-01
      9 T  12 MG    4.516888096937E-03 -3.308658589515E-01 -3.344418967527E-01
     10 T  20 CA    3.422614677248E-01 -5.107380537338E-03 -9.649645254616E-04
     11 T  20 CA    3.388192598260E-01 -4.818069969248E-03  3.332391718938E-01
     12 T  20 CA    3.407013065274E-01 -5.571103162681E-03 -3.359744925182E-01
     13 T  20 CA    3.418590712940E-01  3.317450431987E-01 -5.825431498952E-03
     14 T  20 CA    3.381993094246E-01  3.342896029551E-01  3.309792474148E-01
     15 T  20 CA    3.379886469237E-01  3.353716559201E-01 -3.365992011437E-01
     16 T  20 CA    3.407168954070E-01 -3.359719431904E-01 -2.689029266501E-03
     17 T  12 MG    3.284003959863E-01 -3.339976124573E-01  3.380582419762E-01
     18 T  12 MG    3.285256735080E-01 -3.385383648995E-01 -3.383582331460E-01
     19 T  12 MG   -3.308367876806E-01  5.060615694929E-03 -7.617698614369E-03
     20 T  12 MG   -3.345438507918E-01  9.364386292541E-03  3.262315205035E-01
     21 T  12 MG   -3.292499225820E-01 -1.245054099289E-02 -3.231973954609E-01
     22 T  12 MG   -3.324980806378E-01  3.224751007743E-01  2.334310095096E-03
     23 T  20 CA   -3.374851886752E-01  3.369172606882E-01  3.339927120877E-01
     24 T  12 MG   -3.348479988893E-01  3.315601225562E-01 -3.186423538345E-01
     25 T  12 MG   -3.341869776862E-01 -3.287077421811E-01 -5.021248330572E-03
     26 T  20 CA   -3.401261257283E-01 -3.298523605023E-01  3.330985485128E-01
     27 T  20 CA   -3.322640427064E-01 -3.344402623606E-01 -3.312240185912E-01
     28 T   8 O    -1.792805446048E-01 -1.532918271019E-01  1.663433753172E-01
     29 T   8 O    -1.707889259308E-01 -1.614941439340E-01 -4.929014337453E-01
     30 T   8 O    -1.740342931001E-01 -1.649538903109E-01 -1.707819339650E-01
     31 T   8 O    -1.787617660941E-01  1.679682070676E-01  1.668120549820E-01
     32 T   8 O    -1.794916298254E-01  1.677819516322E-01 -4.873545928397E-01
     33 T   8 O    -1.815017966165E-01  1.731135083190E-01 -1.615871173092E-01
     34 T   8 O    -1.731325058532E-01 -4.940342837401E-01  1.620498361663E-01
     35 T   8 O    -1.707710195282E-01  4.941352420792E-01 -4.951222500238E-01
     36 T   8 O    -1.749842370186E-01 -4.949320456430E-01 -1.573432557402E-01
     37 T   8 O     1.696376168688E-01 -1.716275509284E-01  1.732738638578E-01
     38 T   8 O     1.749917989645E-01 -1.824371368891E-01 -4.962767632441E-01
     39 T   8 O     1.724505014689E-01 -1.719400174209E-01 -1.728034306069E-01
     40 T   8 O     1.679791592131E-01  1.658553719370E-01  1.660630648334E-01
     41 T   8 O     1.665504582395E-01  1.668075886598E-01 -4.998349918911E-01
     42 T   8 O     1.673890320542E-01  1.667588878376E-01 -1.671991989229E-01
     43 T   8 O     1.671599499018E-01  4.997138553003E-01  1.656373065159E-01
     44 T   8 O     1.652363560721E-01 -4.867859444683E-01 -4.983529491271E-01
     45 T   8 O     1.649114218178E-01 -4.878267698572E-01 -1.790065083253E-01
     46 T   8 O    -4.918037014563E-01 -1.712032572842E-01  1.569140493708E-01
     47 T   8 O    -4.994702810209E-01 -1.670581833446E-01  4.991056420580E-01
     48 T   8 O    -4.853261563340E-01 -1.667344188030E-01 -1.673143239610E-01
     49 T   8 O    -4.814886155831E-01  1.625433240340E-01  1.595685908407E-01
     50 T   8 O    -4.882837166868E-01  1.540530681410E-01  4.977062969126E-01
     51 T   8 O    -4.785679100920E-01  1.598676092096E-01 -1.712713482832E-01
     52 T   8 O    -4.983381275780E-01 -4.934117561594E-01  1.635910853160E-01
     53 T   8 O     4.857861473829E-01 -4.878264939955E-01 -4.941178524493E-01
     54 T   8 O    -4.900299058633E-01  4.876702519268E-01 -1.722890248517E-01

 T = ATOM BELONGING TO THE ASYMMETRIC UNIT

 ****    1 SYMMOPS - TRANSLATORS IN FRACTIONAL UNITS
 **** MATRICES AND TRANSLATORS IN THE CRYSTALLOGRAPHIC REFERENCE FRAME
   V INV                    ROTATION MATRICES                   TRANSLATORS
   1   1  1.00  0.00  0.00  0.00  1.00  0.00  0.00  0.00  1.00  0.00  0.00  0.00

 DIRECT LATTICE VECTORS CARTESIAN COMPONENTS (ANGSTROM)
          X                    Y                    Z
   0.420961787008E-02   0.702022713556E+01   0.702375087685E+01
   0.698920551378E+01   0.638959548882E-03   0.702001343809E+01
   0.698774269242E+01   0.700905322361E+01   0.829965812804E-02


 CARTESIAN COORDINATES - PRIMITIVE CELL
 *******************************************************************************
 *      ATOM          X(ANGSTROM)         Y(ANGSTROM)         Z(ANGSTROM)
 *******************************************************************************
    1    20 CA    2.474240353700E-02 -3.582122761900E-02 -3.079249479400E-02
    2    20 CA    2.343654940246E+00  2.351878209507E+00 -6.101179552000E-02
    3    20 CA   -2.329233267755E+00 -2.354912236109E+00 -6.139204445300E-02
    4    20 CA    2.358821673156E+00 -5.676238138300E-02  2.338447501606E+00
    5    20 CA    4.681549066362E+00  2.325920597047E+00  2.312359497448E+00
    6    20 CA    5.206532800200E-02 -2.349055015606E+00  2.317794888593E+00
    7    20 CA   -2.340671828242E+00 -6.951708288000E-02 -2.362439057386E+00
    8    20 CA    4.449737891500E-02  2.340686919944E+00 -2.338331672329E+00
    9    12 MG   -4.649464391405E+00 -2.312622884058E+00 -2.293733032720E+00
   10    20 CA   -4.099866603300E-02  2.395986492051E+00  2.368097395163E+00
   11    20 CA    2.296341406645E+00  4.714276175324E+00  2.348724928568E+00
   12    20 CA   -2.385206667568E+00  3.693389765900E-02  2.351103407971E+00
   13    20 CA    2.279366764762E+00  2.359309541072E+00  4.729939263945E+00
   14    20 CA    4.650640243495E+00  4.694300727825E+00  4.724892215681E+00
   15    20 CA   -6.664378296000E-03  1.372964372600E-02  4.725467928214E+00
   16    20 CA   -2.365532914497E+00  2.372847772950E+00  3.456071883100E-02
   17    12 MG    2.926849558100E-02  4.674700170959E+00 -3.525939063800E-02
   18    12 MG   -4.729091510122E+00 -6.546232919900E-02 -7.186964119400E-02
   19    12 MG   -1.925353116100E-02 -2.375939015818E+00 -2.288252811677E+00
   20    12 MG    2.343663241972E+00 -6.199374547100E-02 -2.281306937640E+00
   21    12 MG   -2.346825644456E+00 -4.576724942801E+00 -2.402654825410E+00
   22    12 MG    2.268756620835E+00 -2.317644695973E+00 -7.158477057000E-02
   23    20 CA    4.687218425621E+00 -2.803470756600E-02 -2.476166998000E-03
   24    12 MG    8.934147509700E-02 -4.583878371907E+00 -2.697703253300E-02
   25    12 MG   -2.333899954876E+00 -2.381472716852E+00 -4.654820519515E+00
   26    20 CA    2.076921045300E-02 -5.326796443300E-02 -4.701764573060E+00
   27    20 CA   -4.653378645837E+00 -4.654349517821E+00 -4.684264043433E+00
   28     8 O     9.022191952300E-02 -9.277852039600E-02 -2.333951975428E+00
   29     8 O     2.414039583342E+00  2.355200599998E+00 -2.329061184115E+00
   30     8 O    -2.347009468612E+00 -2.418885330595E+00 -2.381769477078E+00
   31     8 O     2.338851518460E+00 -8.564630453600E-02 -7.505455753600E-02
   32     8 O     4.754141147975E+00  2.333194139200E+00 -7.861815562600E-02
   33     8 O     8.003263548000E-02 -2.406645930701E+00 -6.090536625200E-02
   34     8 O     4.667932110656E+00 -7.929029744500E-02  2.337191495800E+00
   35     8 O     6.980849685719E+00  2.340179408172E+00  2.273573254199E+00
   36     8 O     2.429812929154E+00 -2.330933624880E+00  2.315232243309E+00
   37     8 O     1.196706023800E-02  2.405270672132E+00 -1.189723980200E-02
   38     8 O     2.245534372184E+00  4.758988582032E+00 -4.743162049300E-02
   39     8 O    -2.408504076533E+00 -6.566151089998E-04  2.793918668000E-03
   40     8 O     2.320310375873E+00  2.343302686483E+00  2.345528973259E+00
   41     8 O     4.661578012604E+00  4.675011792097E+00  2.344951639642E+00
   42     8 O    -2.128198245000E-03  3.307493010000E-03  2.344960798016E+00
   43     8 O     4.650737390488E+00  2.334780810404E+00  4.683462557122E+00
   44     8 O     7.093034602500E+00  4.676395552735E+00  4.767512066321E+00
   45     8 O     2.329526757747E+00 -9.662324783900E-02  4.752274009006E+00
   46     8 O    -9.796043573900E-02  4.667362976844E+00  2.368897363694E+00
   47     8 O     2.322124865732E+00  7.011983581299E+00  2.346987766746E+00
   48     8 O    -2.332323983621E+00  2.440305745003E+00  2.443074348463E+00
   49     8 O     2.253255685943E+00  4.758596295608E+00  4.784275474697E+00
   50     8 O     4.556706222499E+00  7.080912896288E+00  4.679753094261E+00
   51     8 O    -7.725750678100E-02  2.460223860063E+00  4.783260370038E+00
   52     8 O     4.685893562812E+00  4.668722602937E+00  7.081162045727E+00
   53     8 O     7.116705145999E+00  6.956411249146E+00  7.011704422305E+00
   54     8 O     2.206663018503E+00  2.372834549717E+00  7.003924677737E+00
 WARNING **** CRYSTA **** TESTGEOM  DIRECTIVE - GEOMETRY EDITING COMPLETE
 TTTTTTTTTTTTTTTTTTTTTTTTTTTTTT END         TELAPSE        0.01 TCPU        0.01
 EEEEEEEEEE TERMINATION  DATE 10 03 2023 TIME 10:28:30.2
Fri 10 Mar 2023 10:28:30 GMT
Contents of temporary directory:
total 8
-rw-r--r--  1 brunocamino  admin  4027 10 Mar 10:28 fort.34
SCF abnormal end - no wf written in fort.9
geometry input file fort.34 saved as /Users/brunocamino/Desktop/Imperial/cmsg_icl/solid-solutions/./data/crystal/testgeom_opt/CaMgO_testgeom_553.gui
temporary directory /Users/brunocamino/crystal/tmp removed
