date Fri 10 Mar 2023 10:30:58 GMT
hostname MacBook-Pro-8
system Darwin MacBook-Pro-8 21.6.0 Darwin Kernel Version 21.6.0: Mon Aug 22 20:20:05 PDT 2022; root:xnu-8020.140.49~2/RELEASE_ARM64_T8101 arm64
user brunocamino
output data in /Users/brunocamino/Desktop/Imperial/cmsg_icl/solid-solutions/./data/crystal/testgeom_opt/CaMgO_testgeom_2391.out
crystal executable in /Users/brunocamino/crystal
input data in /Users/brunocamino/Desktop/Imperial/cmsg_icl/solid-solutions/./data/crystal/testgeom_opt/CaMgO_testgeom_2391.d12
temporary directory /Users/brunocamino/crystal/tmp
external geometry input from /Users/brunocamino/Desktop/Imperial/cmsg_icl/solid-solutions/./data/crystal/testgeom_opt/CaMgO_testgeom_2391.gui
external geometry input saved in /Users/brunocamino/Desktop/Imperial/cmsg_icl/solid-solutions/./data/crystal/testgeom_opt/CaMgO_testgeom_2391_inp.gui
Bulk 
EXTERNAL
EXTPRT
TESTGEOM
END

         
 *******************************************************************************
 *                                                                             *
 *                               CRYSTAL17                                     *
 *                      public : 1.0.1 - Feb 1st, 2017                         *
 *                       HTTP://WWW.CRYSTAL.UNITO.IT                           *
 *                                                                             *
 *                              MAIN AUTHORS                                   *
 *                                                                             *
 *  R. DOVESI(1,11), V.R. SAUNDERS(2), C. ROETTI(1,11), R. ORLANDO(1,11),      *
 *  C.M. ZICOVICH-WILSON(1,3), F. PASCALE(4), B. CIVALLERI(1,11),              *
 *  K. DOLL(5), N.M. HARRISON(2,6), I.J. BUSH(7), Ph. D'ARCO(8),               *
 *  M. LLUNELL(9), M. CAUSA'(10), Y. NOEL(8), L. MASCHIO(1,11), A. ERBA(1,11)  *
 *  M. RE'RAT(14), S. CASASSA(1,11)                                            *
 *                                                                             *
 *        CONTRIBUTIONS TO THE CODE HAVE ALSO BEEN GIVEN BY                    *
 *                                                                             *
 *  M. FERRABONE(1,11), M. DE LA PIERRE(1,11), M. FERRERO(1,11),               *
 *  J. BAIMA(1,11), E. ALBANESE(1,11), M.F. PEINTINGER(12), R. BAST(13),       *
 *  B. KIRTMAN(15), V. LACIVITA(1,11), R. DEMICHELIS(1,16)                     *
 *  G. BRANDEBURG(17), S. SALUSTRO(1,11), G. SANSONE(1,11)                     *
 *  M.T. RUGGIERO(18)                                                          *
 *                                                                             *
 * (1) THEORETICAL CHEMISTRY GROUP - UNIVERSITA' DI TORINO - TORINO (ITALY)    *

 * (2) COMPUTATIONAL SCIENCE & ENGINEERING DEPARTMENT - STFC DARESBURY (UK)    *
 * (3) UNIVERSIDAD AUTONOMA DEL ESTADO DE MORELOS - CUERNAVACA (MEXICO)        *
 * (4) UNIVERSITE' DE LORRAINE - NANCY (FRANCE)                                *
 * (5) UNIVERSITAET STUTTGART- STUTTGART (GERMANY)                             *
 * (6) IMPERIAL COLLEGE - LONDON (UK)                                          *
 * (7) OXFORD E-RESEARCH CENTRE - OXFORD (UK)                                  *
 * (8) UPMC - SORBONNE UNIVERSITES - PARIS (FRANCE)                            *
 * (9) UNIVERSIDAD DE BARCELONA - BARCELONA (SPAIN)                            *
 *(10) UNIVERSITA' DI NAPOLI "FEDERICO II" - NAPOLI (ITALY)                    *
 *(11) NIS - NANOSTRUCTURED INTERFACES AND SURFACES - TORINO (ITALY)           *
 *(12) MPI FUER CHEMISCHE ENERGIEKONVERSION - MUELHEIM AN DER RUHR (GERMANY)   *
 *(13) UNIVERSITY OF TROMSO - TROMSO (NORWAY)                                  *
 *(14) UNIVERSITE' DE PAU ET DES PAYS DE L'ADOUR - PAU (FRANCE)                *
 *(15) UNIVERSITY OF CALIFORNIA SANTA BARBARA - SANTA BARBARA (USA)            *
 *(16) CURTIN UNIVERSITY - PERTH (AUSTRALIA)                                   *
 *(17) UNIVERSITY COLLEGE LONDON - LONDON (UK)                                 *
 *(18) CAMBRIDGE UNIVERSITY - CAMBRIDGE (UK)                                   *
 *                                                                             *
 *******************************************************************************
 EEEEEEEEEE STARTING  DATE 10 03 2023 TIME 10:30:58.8
 Bulk                                                                            

 GEOMETRY INPUT FROM EXTERNAL FILE (FORTRAN UNIT 34)
 3D - CRYSTAL 

 *******************************************************************************
 LATTICE PARAMETERS  (ANGSTROMS AND DEGREES) - PRIMITIVE CELL
       A          B          C        ALPHA      BETA     GAMMA        VOLUME
    9.90044    9.92024    9.89508    60.03411  60.19271  59.98077    688.268748
 INFORMATION **** CHKGRP **** SPGR WITH NO INVERSION

 NUMBER OF IRREDUCIBLE ATOMS IN THE CELL:   54

 CARTESIAN COORDINATES (ANGSTROM) - IRREDUCIBLE ATOMS AND SYMMETRY RELATED

 AT.IRR.  AT  AT.N.          X                   Y                   Z
     1     1    20   -3.217071490000E-02 -1.743893802000E-03 -2.803442203800E-02
     2     2    20    2.343490450396E+00  2.350597324280E+00 -3.114757807200E-02
     3     3    20   -2.341756080000E+00 -2.317241568944E+00 -2.069451411800E-02
     4     4    20    2.340841887250E+00 -1.610291277800E-02  2.366926488378E+00
     5     5    20    4.678576477226E+00  2.322993936986E+00  2.360649627899E+00
     6     6    20   -1.516970854800E-02 -2.307736748976E+00  2.394403176096E+00
     7     7    20   -2.350533618864E+00 -3.948011488400E-02 -2.314904606569E+00
     8     8    20   -5.592080858000E-03  2.389824127887E+00 -2.299671274523E+00
     9     9    12   -4.694690793833E+00 -2.311434196904E+00 -2.287377428632E+00
    10    10    20   -6.069260462400E-02  2.348208970532E+00  2.331021668155E+00
    11    11    20    2.336926717615E+00  4.687627229370E+00  2.298132481832E+00
    12    12    12   -2.370239892883E+00  2.310250823300E-02  2.328445863610E+00
    13    13    20    2.343716063887E+00  2.336301425260E+00  4.720120343285E+00
    14    14    12    4.708078574354E+00  4.656493279801E+00  4.764928899507E+00
    15    15    20   -5.616888203700E-02 -1.868745332900E-02  4.717287997808E+00
    16    16    12   -2.336223313037E+00  2.269613774600E+00 -1.640915829100E-02
    17    17    12   -9.777318644600E-02  4.729913399815E+00 -9.853926505200E-02
    18    18    12   -4.592048710827E+00 -1.547413124300E-02 -7.959824100000E-04
    19    19    12   -3.875202758500E-02 -2.379789319552E+00 -2.324300287826E+00
    20    20    20    2.399434116540E+00 -1.811412428000E-02 -2.361440548752E+00
    21    21    12   -2.335741903307E+00 -4.616196635397E+00 -2.330524472383E+00
    22    22    20    2.393544187361E+00 -2.337242273561E+00 -2.204469650000E-04
    23    23    12    4.677246217042E+00  1.551064628700E-02 -6.665228479400E-02
    24    24    20   -7.035213681000E-03 -4.701133610745E+00 -1.463651168300E-02
    25    25    20   -2.310330208317E+00 -2.356632178498E+00 -4.719340428944E+00
    26    26    20    1.390253269600E-02 -4.289584439800E-02 -4.697854130009E+00
    27    27    20   -4.627695116541E+00 -4.673145396195E+00 -4.687975776567E+00
    28    28     8    4.649892844000E-03 -9.242128091400E-02 -2.337736801456E+00
    29    29     8    2.443255993109E+00  2.463429229847E+00 -2.335734036496E+00
    30    30     8   -2.294816261566E+00 -2.427301306399E+00 -2.340392838452E+00
    31    31     8    2.422387004836E+00  2.373841135000E-03 -3.591076912000E-03
    32    32     8    4.676676890954E+00  2.230070233984E+00 -8.312246437200E-02
    33    33     8    7.872751265000E-03 -2.339254544263E+00 -5.664396234100E-02
    34    34     8    4.677424519184E+00 -7.616382054000E-03  2.331931513955E+00
    35    35     8    7.014004601275E+00  2.315104493527E+00  2.348163744018E+00
    36    36     8    2.339836207564E+00 -2.328737577593E+00  2.399948438899E+00
    37    37     8   -1.075917748660E-01  2.412055889467E+00  6.993021800000E-03
    38    38     8    2.267432951772E+00  4.772402987130E+00 -1.237901300410E-01
    39    39     8   -2.418875283186E+00  7.615266931100E-02  6.347030841100E-02
    40    40     8    2.334057701699E+00  2.328437066881E+00  2.335308517654E+00
    41    41     8    4.676567668811E+00  4.733528829010E+00  2.389895337067E+00
    42    42     8   -8.838902113500E-02  3.806224174000E-03  2.335809497380E+00
    43    43     8    4.677222323673E+00  2.392892029978E+00  4.775278444551E+00
    44    44     8    6.982452763246E+00  4.657588639819E+00  4.758962688471E+00
    45    45     8    2.331794684142E+00 -1.043205407350E-01  4.750144049653E+00
    46    46     8    3.809730029000E-03  4.656004321376E+00  2.319528022840E+00
    47    47     8    2.453241796626E+00  6.982976843253E+00  2.292636133520E+00
    48    48     8   -2.344662288014E+00  2.221989226219E+00  2.309567113997E+00
    49    49     8    2.357136302923E+00  4.644992796041E+00  4.689907861286E+00
    50    50     8    4.668109352199E+00  6.977271601967E+00  4.702130186990E+00
    51    51     8   -1.018289864880E-01  2.458288351108E+00  4.685307290113E+00
    52    52     8    4.765202941126E+00  4.690751901866E+00  6.902436545403E+00
    53    53     8    6.948358716395E+00  6.881067541608E+00  7.019721344118E+00
    54    54     8    2.434168243630E+00  2.215339703853E+00  7.006359468396E+00

 SYMMETRY CHANGED DURING OLD RUN :  INFORMATION ON SPACE GROUP LOST 
 NUMBER OF SYMMETRY OPERATORS         :    1
 *******************************************************************************
 LATTICE PARAMETERS (ANGSTROMS AND DEGREES) - BOHR = 0.5291772083 ANGSTROM
 PRIMITIVE CELL - CENTRING CODE 1/0 VOLUME=   688.268748 - DENSITY  3.298 g/cm^3
         A              B              C           ALPHA      BETA       GAMMA 
     9.90043823     9.92023574     9.89508095    60.034106  60.192705  59.980773
 *******************************************************************************
 ATOMS IN THE ASYMMETRIC UNIT   54 - ATOMS IN THE UNIT CELL:   54
     ATOM                 X/A                 Y/B                 Z/C    
 *******************************************************************************
      1 T  20 CA    1.680809299997E-04 -4.163065045163E-03 -4.252522166075E-04
      2 T  20 CA   -8.131909774198E-04 -3.293045048947E-03  3.374951999777E-01
      3 T  20 CA   -6.164112374543E-04 -2.658545081601E-03 -3.312976395422E-01
      4 T  20 CA    8.363655895229E-04  3.364231190145E-01 -2.553069766606E-03
      5 T  20 CA    1.381717678903E-03  3.353127170470E-01  3.319394886758E-01
      6 T  20 CA    6.499489874969E-03  3.343478703559E-01 -3.364643491283E-01
      7 T  20 CA   -4.183189211865E-04 -3.294367358724E-01 -5.814348383726E-03
      8 T  20 CA    7.602731599227E-03 -3.349507039570E-01  3.341119992486E-01
      9 T  12 MG    5.813011465133E-03 -3.320706448446E-01 -3.374762634975E-01
     10 T  20 CA    3.384573111509E-01 -6.231816602364E-03 -2.287158060021E-03
     11 T  20 CA    3.328665823882E-01 -4.993505841119E-03  3.383946157003E-01
     12 T  12 MG    3.362759556692E-01 -4.743634238353E-03 -3.331383459399E-01
     13 T  20 CA    3.366483596433E-01  3.359984850458E-01 -1.582516816863E-03
     14 T  12 MG    3.375845960186E-01  3.417733828013E-01  3.298231931843E-01
     15 T  20 CA    3.387410076322E-01  3.331687166954E-01 -3.409975595449E-01
     16 T  12 MG    3.275828128527E-01 -3.298447543122E-01 -3.232678815910E-03
     17 T  12 MG    3.384666266667E-01 -3.520925226044E-01  3.382397779823E-01
     18 T  12 MG    3.257371198841E-01 -3.260951024983E-01 -3.286836738353E-01
     19 T  12 MG   -3.331593815840E-01  1.883219643150E-03 -7.544376523590E-03
     20 T  20 CA   -3.403479081186E-01  4.117920806577E-03  3.379256865709E-01
     21 T  12 MG   -3.301462829185E-01 -2.334269564688E-03 -3.308977418911E-01
     22 T  20 CA   -3.376884362868E-01  3.375788181837E-01  3.670017303521E-03
     23 T  12 MG   -3.366048992697E-01  3.273602980656E-01  3.395641757791E-01
     24 T  20 CA   -3.370087867596E-01  3.345112853628E-01 -3.356069006138E-01
     25 T  20 CA   -3.404245872061E-01 -3.321111839404E-01  2.455324298248E-03
     26 T  20 CA   -3.387551792038E-01 -3.303940922045E-01  3.321957328715E-01
     27 T  20 CA   -3.390163224669E-01 -3.293779197749E-01 -3.307541892273E-01
     28 T   8 O    -1.734961801940E-01 -1.594908999617E-01  1.600626092893E-01
     29 T   8 O    -1.640284804587E-01 -1.683199724879E-01 -4.833383776875E-01
     30 T   8 O    -1.771004210551E-01 -1.565915835156E-01 -1.707624418536E-01
     31 T   8 O    -1.725321870087E-01  1.721492123287E-01  1.732579193847E-01
     32 T   8 O    -1.792385843887E-01  1.678422444544E-01  4.990437130734E-01
     33 T   8 O    -1.720197976581E-01  1.637468579452E-01 -1.626721863224E-01
     34 T   8 O    -1.673873866658E-01  4.997868240018E-01  1.672544618005E-01
     35 T   8 O    -1.663282541255E-01 -4.986327382409E-01  4.988921013960E-01
     36 T   8 O    -1.622579807635E-01 -4.959819043285E-01 -1.703353931660E-01
     37 T   8 O     1.807918007324E-01 -1.795898674623E-01  1.642958211249E-01
     38 T   8 O     1.713330678555E-01 -1.884265947311E-01 -4.881724608359E-01
     39 T   8 O     1.821685014255E-01 -1.732494603063E-01 -1.716531084659E-01
     40 T   8 O     1.668687957398E-01  1.660924225255E-01  1.668548971055E-01
     41 T   8 O     1.761337364063E-01  1.649376876202E-01 -4.979236717248E-01
     42 T   8 O     1.729778325564E-01  1.597225204515E-01 -1.722363657859E-01
     43 T   8 O     1.785093805416E-01 -4.978774314956E-01  1.650303698923E-01
     44 T   8 O     1.753285107220E-01 -4.966997651693E-01  4.925982669555E-01
     45 T   8 O     1.649572445305E-01 -4.882486336326E-01 -1.790818272483E-01
     46 T   8 O     4.982188346482E-01 -1.674246133289E-01  1.681476784909E-01
     47 T   8 O     4.884761453317E-01 -1.611784546351E-01 -4.887904502538E-01
     48 T   8 O     4.904875816219E-01 -1.614500570650E-01 -1.727425573181E-01
     49 T   8 O     4.987768628470E-01  1.697698343462E-01  1.666036983061E-01
     50 T   8 O    -4.979426849567E-01  1.685572773262E-01  4.973830691285E-01
     51 T   8 O    -4.830062633928E-01  1.505756114952E-01 -1.648679109373E-01
     52 T   8 O     4.882551836903E-01  4.955680910607E-01  1.842563395971E-01
     53 T   8 O     4.979593601029E-01 -4.971226743259E-01  4.882897507046E-01
     54 T   8 O     4.844333178208E-01 -4.861482244560E-01 -1.664530924392E-01

 T = ATOM BELONGING TO THE ASYMMETRIC UNIT
 *******************************************************************************
 * GEOMETRY EDITING - INPUT COORDINATES ARE GIVEN IN ANGSTROM         
 *******************************************************************************

 GCALCO - MAX INDICES DIRECT LATTICE VECTOR    14    14    14
 NO.OF VECTORS CREATED 6999 STARS 3500 RMAX   198.39829 BOHR

 GEOMETRY FOR WAVE FUNCTION - DIMENSIONALITY OF THE SYSTEM    3
 (NON PERIODIC DIRECTION: LATTICE PARAMETER FORMALLY SET TO 500)
 *******************************************************************************
 LATTICE PARAMETERS (ANGSTROMS AND DEGREES) - BOHR = 0.5291772083 ANGSTROM
 PRIMITIVE CELL - CENTRING CODE 1/0 VOLUME=   688.268748 - DENSITY  3.298 g/cm^3
         A              B              C           ALPHA      BETA       GAMMA 
     9.90043823     9.92023574     9.89508095    60.034106  60.192705  59.980773
 *******************************************************************************
 ATOMS IN THE ASYMMETRIC UNIT   54 - ATOMS IN THE UNIT CELL:   54
     ATOM                 X/A                 Y/B                 Z/C    
 *******************************************************************************
      1 T  20 CA    1.680809299997E-04 -4.163065045163E-03 -4.252522166075E-04
      2 T  20 CA   -8.131909774198E-04 -3.293045048947E-03  3.374951999777E-01
      3 T  20 CA   -6.164112374542E-04 -2.658545081601E-03 -3.312976395422E-01
      4 T  20 CA    8.363655895229E-04  3.364231190145E-01 -2.553069766606E-03
      5 T  20 CA    1.381717678903E-03  3.353127170470E-01  3.319394886758E-01
      6 T  20 CA    6.499489874969E-03  3.343478703559E-01 -3.364643491283E-01
      7 T  20 CA   -4.183189211865E-04 -3.294367358724E-01 -5.814348383726E-03
      8 T  20 CA    7.602731599227E-03 -3.349507039570E-01  3.341119992486E-01
      9 T  12 MG    5.813011465133E-03 -3.320706448446E-01 -3.374762634975E-01
     10 T  20 CA    3.384573111509E-01 -6.231816602364E-03 -2.287158060021E-03
     11 T  20 CA    3.328665823882E-01 -4.993505841119E-03  3.383946157003E-01
     12 T  12 MG    3.362759556692E-01 -4.743634238353E-03 -3.331383459399E-01
     13 T  20 CA    3.366483596433E-01  3.359984850457E-01 -1.582516816863E-03
     14 T  12 MG    3.375845960186E-01  3.417733828013E-01  3.298231931843E-01
     15 T  20 CA    3.387410076322E-01  3.331687166954E-01 -3.409975595449E-01
     16 T  12 MG    3.275828128527E-01 -3.298447543122E-01 -3.232678815909E-03
     17 T  12 MG    3.384666266667E-01 -3.520925226044E-01  3.382397779823E-01
     18 T  12 MG    3.257371198841E-01 -3.260951024983E-01 -3.286836738353E-01
     19 T  12 MG   -3.331593815840E-01  1.883219643151E-03 -7.544376523590E-03
     20 T  20 CA   -3.403479081186E-01  4.117920806577E-03  3.379256865709E-01
     21 T  12 MG   -3.301462829185E-01 -2.334269564688E-03 -3.308977418911E-01
     22 T  20 CA   -3.376884362868E-01  3.375788181837E-01  3.670017303521E-03
     23 T  12 MG   -3.366048992697E-01  3.273602980656E-01  3.395641757791E-01
     24 T  20 CA   -3.370087867596E-01  3.345112853628E-01 -3.356069006138E-01
     25 T  20 CA   -3.404245872061E-01 -3.321111839404E-01  2.455324298248E-03
     26 T  20 CA   -3.387551792038E-01 -3.303940922045E-01  3.321957328715E-01
     27 T  20 CA   -3.390163224669E-01 -3.293779197749E-01 -3.307541892273E-01
     28 T   8 O    -1.734961801940E-01 -1.594908999617E-01  1.600626092893E-01
     29 T   8 O    -1.640284804587E-01 -1.683199724879E-01 -4.833383776875E-01
     30 T   8 O    -1.771004210551E-01 -1.565915835156E-01 -1.707624418536E-01
     31 T   8 O    -1.725321870087E-01  1.721492123287E-01  1.732579193847E-01
     32 T   8 O    -1.792385843887E-01  1.678422444544E-01  4.990437130734E-01
     33 T   8 O    -1.720197976581E-01  1.637468579452E-01 -1.626721863224E-01
     34 T   8 O    -1.673873866658E-01  4.997868240018E-01  1.672544618005E-01
     35 T   8 O    -1.663282541255E-01 -4.986327382409E-01  4.988921013960E-01
     36 T   8 O    -1.622579807635E-01 -4.959819043285E-01 -1.703353931660E-01
     37 T   8 O     1.807918007324E-01 -1.795898674623E-01  1.642958211249E-01
     38 T   8 O     1.713330678555E-01 -1.884265947311E-01 -4.881724608359E-01
     39 T   8 O     1.821685014255E-01 -1.732494603063E-01 -1.716531084659E-01
     40 T   8 O     1.668687957398E-01  1.660924225255E-01  1.668548971055E-01
     41 T   8 O     1.761337364063E-01  1.649376876202E-01 -4.979236717248E-01
     42 T   8 O     1.729778325564E-01  1.597225204515E-01 -1.722363657859E-01
     43 T   8 O     1.785093805416E-01 -4.978774314956E-01  1.650303698923E-01
     44 T   8 O     1.753285107220E-01 -4.966997651693E-01  4.925982669555E-01
     45 T   8 O     1.649572445305E-01 -4.882486336326E-01 -1.790818272483E-01
     46 T   8 O     4.982188346482E-01 -1.674246133289E-01  1.681476784909E-01
     47 T   8 O     4.884761453317E-01 -1.611784546351E-01 -4.887904502538E-01
     48 T   8 O     4.904875816219E-01 -1.614500570650E-01 -1.727425573181E-01
     49 T   8 O     4.987768628470E-01  1.697698343462E-01  1.666036983061E-01
     50 T   8 O    -4.979426849567E-01  1.685572773262E-01  4.973830691285E-01
     51 T   8 O    -4.830062633928E-01  1.505756114952E-01 -1.648679109373E-01
     52 T   8 O     4.882551836903E-01  4.955680910607E-01  1.842563395971E-01
     53 T   8 O     4.979593601029E-01 -4.971226743259E-01  4.882897507046E-01
     54 T   8 O     4.844333178208E-01 -4.861482244560E-01 -1.664530924392E-01

 T = ATOM BELONGING TO THE ASYMMETRIC UNIT

 ****    1 SYMMOPS - TRANSLATORS IN FRACTIONAL UNITS
 **** MATRICES AND TRANSLATORS IN THE CRYSTALLOGRAPHIC REFERENCE FRAME
   V INV                    ROTATION MATRICES                   TRANSLATORS
   1   1  1.00  0.00  0.00  0.00  1.00  0.00  0.00  0.00  1.00  0.00  0.00  0.00

 DIRECT LATTICE VECTORS CARTESIAN COMPONENTS (ANGSTROM)
          X                    Y                    Z
  -0.284176397457E-02   0.698492972861E+01   0.701636841672E+01
   0.701125074646E+01  -0.122479770386E-01   0.701806882914E+01
   0.701217825976E+01   0.698154247269E+01  -0.690710199865E-02


 CARTESIAN COORDINATES - PRIMITIVE CELL
 *******************************************************************************
 *      ATOM          X(ANGSTROM)         Y(ANGSTROM)         Z(ANGSTROM)
 *******************************************************************************
    1    20 CA   -3.217071490000E-02 -1.743893802000E-03 -2.803442203800E-02
    2    20 CA    2.343490450396E+00  2.350597324280E+00 -3.114757807200E-02
    3    20 CA   -2.341756080000E+00 -2.317241568944E+00 -2.069451411800E-02
    4    20 CA    2.340841887250E+00 -1.610291277800E-02  2.366926488378E+00
    5    20 CA    4.678576477226E+00  2.322993936986E+00  2.360649627899E+00
    6    20 CA   -1.516970854800E-02 -2.307736748976E+00  2.394403176096E+00
    7    20 CA   -2.350533618864E+00 -3.948011488400E-02 -2.314904606569E+00
    8    20 CA   -5.592080858000E-03  2.389824127887E+00 -2.299671274523E+00
    9    12 MG   -4.694690793833E+00 -2.311434196904E+00 -2.287377428632E+00
   10    20 CA   -6.069260462400E-02  2.348208970532E+00  2.331021668155E+00
   11    20 CA    2.336926717615E+00  4.687627229370E+00  2.298132481832E+00
   12    12 MG   -2.370239892883E+00  2.310250823300E-02  2.328445863610E+00
   13    20 CA    2.343716063887E+00  2.336301425260E+00  4.720120343285E+00
   14    12 MG    4.708078574354E+00  4.656493279801E+00  4.764928899507E+00
   15    20 CA   -5.616888203700E-02 -1.868745332900E-02  4.717287997808E+00
   16    12 MG   -2.336223313037E+00  2.269613774600E+00 -1.640915829100E-02
   17    12 MG   -9.777318644600E-02  4.729913399815E+00 -9.853926505200E-02
   18    12 MG   -4.592048710827E+00 -1.547413124300E-02 -7.959824099997E-04
   19    12 MG   -3.875202758500E-02 -2.379789319552E+00 -2.324300287826E+00
   20    20 CA    2.399434116540E+00 -1.811412428000E-02 -2.361440548752E+00
   21    12 MG   -2.335741903307E+00 -4.616196635397E+00 -2.330524472383E+00
   22    20 CA    2.393544187361E+00 -2.337242273561E+00 -2.204469650005E-04
   23    12 MG    4.677246217042E+00  1.551064628700E-02 -6.665228479400E-02
   24    20 CA   -7.035213681000E-03 -4.701133610745E+00 -1.463651168300E-02
   25    20 CA   -2.310330208317E+00 -2.356632178498E+00 -4.719340428944E+00
   26    20 CA    1.390253269600E-02 -4.289584439800E-02 -4.697854130009E+00
   27    20 CA   -4.627695116541E+00 -4.673145396195E+00 -4.687975776567E+00
   28     8 O     4.649892844000E-03 -9.242128091400E-02 -2.337736801456E+00
   29     8 O     2.443255993109E+00  2.463429229847E+00 -2.335734036496E+00
   30     8 O    -2.294816261566E+00 -2.427301306399E+00 -2.340392838452E+00
   31     8 O     2.422387004836E+00  2.373841134999E-03 -3.591076912000E-03
   32     8 O     4.676676890954E+00  2.230070233984E+00 -8.312246437200E-02
   33     8 O     7.872751265000E-03 -2.339254544263E+00 -5.664396234100E-02
   34     8 O     4.677424519184E+00 -7.616382054000E-03  2.331931513955E+00
   35     8 O     7.014004601275E+00  2.315104493527E+00  2.348163744018E+00
   36     8 O     2.339836207564E+00 -2.328737577593E+00  2.399948438899E+00
   37     8 O    -1.075917748660E-01  2.412055889467E+00  6.993021800000E-03
   38     8 O     2.267432951772E+00  4.772402987130E+00 -1.237901300410E-01
   39     8 O    -2.418875283186E+00  7.615266931100E-02  6.347030841100E-02
   40     8 O     2.334057701699E+00  2.328437066881E+00  2.335308517654E+00
   41     8 O     4.676567668811E+00  4.733528829010E+00  2.389895337067E+00
   42     8 O    -8.838902113500E-02  3.806224174000E-03  2.335809497380E+00
   43     8 O     4.677222323673E+00  2.392892029978E+00  4.775278444551E+00
   44     8 O     6.982452763246E+00  4.657588639819E+00  4.758962688471E+00
   45     8 O     2.331794684142E+00 -1.043205407350E-01  4.750144049653E+00
   46     8 O     3.809730029000E-03  4.656004321376E+00  2.319528022840E+00
   47     8 O     2.453241796626E+00  6.982976843253E+00  2.292636133520E+00
   48     8 O    -2.344662288014E+00  2.221989226219E+00  2.309567113997E+00
   49     8 O     2.357136302923E+00  4.644992796041E+00  4.689907861286E+00
   50     8 O     4.668109352199E+00  6.977271601967E+00  4.702130186990E+00
   51     8 O    -1.018289864880E-01  2.458288351108E+00  4.685307290113E+00
   52     8 O     4.765202941126E+00  4.690751901866E+00  6.902436545403E+00
   53     8 O     6.948358716395E+00  6.881067541608E+00  7.019721344118E+00
   54     8 O     2.434168243630E+00  2.215339703853E+00  7.006359468396E+00
 WARNING **** CRYSTA **** TESTGEOM  DIRECTIVE - GEOMETRY EDITING COMPLETE
 TTTTTTTTTTTTTTTTTTTTTTTTTTTTTT END         TELAPSE        0.01 TCPU        0.01
 EEEEEEEEEE TERMINATION  DATE 10 03 2023 TIME 10:30:58.8
Fri 10 Mar 2023 10:30:58 GMT
Contents of temporary directory:
total 8
-rw-r--r--  1 brunocamino  admin  4027 10 Mar 10:30 fort.34
SCF abnormal end - no wf written in fort.9
geometry input file fort.34 saved as /Users/brunocamino/Desktop/Imperial/cmsg_icl/solid-solutions/./data/crystal/testgeom_opt/CaMgO_testgeom_2391.gui
temporary directory /Users/brunocamino/crystal/tmp removed
