date Fri 10 Mar 2023 10:30:10 GMT
hostname MacBook-Pro-8
system Darwin MacBook-Pro-8 21.6.0 Darwin Kernel Version 21.6.0: Mon Aug 22 20:20:05 PDT 2022; root:xnu-8020.140.49~2/RELEASE_ARM64_T8101 arm64
user brunocamino
output data in /Users/brunocamino/Desktop/Imperial/cmsg_icl/solid-solutions/./data/crystal/testgeom_opt/CaMgO_testgeom_1770.out
crystal executable in /Users/brunocamino/crystal
input data in /Users/brunocamino/Desktop/Imperial/cmsg_icl/solid-solutions/./data/crystal/testgeom_opt/CaMgO_testgeom_1770.d12
temporary directory /Users/brunocamino/crystal/tmp
external geometry input from /Users/brunocamino/Desktop/Imperial/cmsg_icl/solid-solutions/./data/crystal/testgeom_opt/CaMgO_testgeom_1770.gui
external geometry input saved in /Users/brunocamino/Desktop/Imperial/cmsg_icl/solid-solutions/./data/crystal/testgeom_opt/CaMgO_testgeom_1770_inp.gui
Bulk 
EXTERNAL
EXTPRT
TESTGEOM
END

         
 *******************************************************************************
 *                                                                             *
 *                               CRYSTAL17                                     *
 *                      public : 1.0.1 - Feb 1st, 2017                         *
 *                       HTTP://WWW.CRYSTAL.UNITO.IT                           *
 *                                                                             *
 *                              MAIN AUTHORS                                   *
 *                                                                             *
 *  R. DOVESI(1,11), V.R. SAUNDERS(2), C. ROETTI(1,11), R. ORLANDO(1,11),      *
 *  C.M. ZICOVICH-WILSON(1,3), F. PASCALE(4), B. CIVALLERI(1,11),              *
 *  K. DOLL(5), N.M. HARRISON(2,6), I.J. BUSH(7), Ph. D'ARCO(8),               *
 *  M. LLUNELL(9), M. CAUSA'(10), Y. NOEL(8), L. MASCHIO(1,11), A. ERBA(1,11)  *
 *  M. RE'RAT(14), S. CASASSA(1,11)                                            *
 *                                                                             *
 *        CONTRIBUTIONS TO THE CODE HAVE ALSO BEEN GIVEN BY                    *
 *                                                                             *
 *  M. FERRABONE(1,11), M. DE LA PIERRE(1,11), M. FERRERO(1,11),               *
 *  J. BAIMA(1,11), E. ALBANESE(1,11), M.F. PEINTINGER(12), R. BAST(13),       *
 *  B. KIRTMAN(15), V. LACIVITA(1,11), R. DEMICHELIS(1,16)                     *
 *  G. BRANDEBURG(17), S. SALUSTRO(1,11), G. SANSONE(1,11)                     *
 *  M.T. RUGGIERO(18)                                                          *
 *                                                                             *
 * (1) THEORETICAL CHEMISTRY GROUP - UNIVERSITA' DI TORINO - TORINO (ITALY)    *

 * (2) COMPUTATIONAL SCIENCE & ENGINEERING DEPARTMENT - STFC DARESBURY (UK)    *
 * (3) UNIVERSIDAD AUTONOMA DEL ESTADO DE MORELOS - CUERNAVACA (MEXICO)        *
 * (4) UNIVERSITE' DE LORRAINE - NANCY (FRANCE)                                *
 * (5) UNIVERSITAET STUTTGART- STUTTGART (GERMANY)                             *
 * (6) IMPERIAL COLLEGE - LONDON (UK)                                          *
 * (7) OXFORD E-RESEARCH CENTRE - OXFORD (UK)                                  *
 * (8) UPMC - SORBONNE UNIVERSITES - PARIS (FRANCE)                            *
 * (9) UNIVERSIDAD DE BARCELONA - BARCELONA (SPAIN)                            *
 *(10) UNIVERSITA' DI NAPOLI "FEDERICO II" - NAPOLI (ITALY)                    *
 *(11) NIS - NANOSTRUCTURED INTERFACES AND SURFACES - TORINO (ITALY)           *
 *(12) MPI FUER CHEMISCHE ENERGIEKONVERSION - MUELHEIM AN DER RUHR (GERMANY)   *
 *(13) UNIVERSITY OF TROMSO - TROMSO (NORWAY)                                  *
 *(14) UNIVERSITE' DE PAU ET DES PAYS DE L'ADOUR - PAU (FRANCE)                *
 *(15) UNIVERSITY OF CALIFORNIA SANTA BARBARA - SANTA BARBARA (USA)            *
 *(16) CURTIN UNIVERSITY - PERTH (AUSTRALIA)                                   *
 *(17) UNIVERSITY COLLEGE LONDON - LONDON (UK)                                 *
 *(18) CAMBRIDGE UNIVERSITY - CAMBRIDGE (UK)                                   *
 *                                                                             *
 *******************************************************************************
 EEEEEEEEEE STARTING  DATE 10 03 2023 TIME 10:30:10.0
 Bulk                                                                            

 GEOMETRY INPUT FROM EXTERNAL FILE (FORTRAN UNIT 34)
 3D - CRYSTAL 

 *******************************************************************************
 LATTICE PARAMETERS  (ANGSTROMS AND DEGREES) - PRIMITIVE CELL
       A          B          C        ALPHA      BETA     GAMMA        VOLUME
    9.88004    9.89060    9.93169    59.71720  59.89740  60.31058    685.834711
 INFORMATION **** CHKGRP **** SPGR WITH NO INVERSION

 NUMBER OF IRREDUCIBLE ATOMS IN THE CELL:   36

 CARTESIAN COORDINATES (ANGSTROM) - IRREDUCIBLE ATOMS AND SYMMETRY RELATED

 AT.IRR.  AT  AT.N.          X                   Y                   Z
     1     1    20    0.000000000000E+00 -2.049027966200E-02 -2.146591940500E-02
     2     2    20    2.381434619683E+00  2.339273404781E+00 -1.683211405800E-02
     3     3    20   -2.342426902387E+00 -2.352449887995E+00 -3.341524566000E-02
     4     4    20    2.367206440037E+00 -1.387291510000E-03  2.365534317771E+00
     5     5    20    4.709353656210E+00  2.319117939438E+00  2.296662909129E+00
     6     6    20    0.000000000000E+00 -2.360571051981E+00  2.328099141284E+00
     7     7    20   -2.359923507701E+00 -3.020573322400E-02 -2.332402070871E+00
     8     8    20    0.000000000000E+00  2.347430338424E+00 -2.344695765283E+00
     9     9    12   -4.667963116526E+00 -2.358062306581E+00 -2.288871670830E+00
    10    10    20    0.000000000000E+00  2.359718556668E+00  2.399902729532E+00
    11    11    20    2.317880778761E+00  4.698560470550E+00  2.342111170863E+00
     4    12    20   -2.367206440037E+00 -1.387291510000E-03  2.365534317771E+00
    13    13    12    2.359368606053E+00  2.441277092369E+00  4.676997899156E+00
     9    14    12    4.667963116526E+00  4.657398273429E+00  4.668029982599E+00
    15    15    20    0.000000000000E+00  2.226595658100E-02  4.694845832942E+00
     2    16    20   -2.381434619683E+00  2.339273404781E+00 -1.683211405800E-02
    17    17    20    0.000000000000E+00  4.746925997572E+00 -5.043207380000E-03
    18    18    12   -4.709653076341E+00  3.350108470400E-02 -5.055893302600E-02
    19    19    12    0.000000000000E+00 -2.407490695054E+00 -2.302035253511E+00
     7    20    20    2.359923507701E+00 -3.020573322400E-02 -2.332402070871E+00
    13    21    12   -2.359368606053E+00 -4.574183487641E+00 -2.279903754273E+00
     3    22    20    2.342426902387E+00 -2.352449887995E+00 -3.341524566000E-02
    18    23    12    4.709653076341E+00  3.350108470400E-02 -5.055893302600E-02
    24    24    12    0.000000000000E+00 -4.751913370327E+00 -7.534869463700E-02
    11    25    20   -2.317880778761E+00 -2.316900109459E+00 -4.614790482565E+00
    26    26    12    0.000000000000E+00  1.845908782100E-02 -4.727038502610E+00
     5    27    20   -4.709353656210E+00 -4.696342640572E+00 -4.660238744299E+00
    28    28     8    0.000000000000E+00 -7.506195116100E-02 -2.392963657116E+00
    29    29     8    2.422261654741E+00  2.425290728467E+00 -2.312789129186E+00
    30    30     8   -2.357898699939E+00 -2.431983330530E+00 -2.313205613082E+00
    31    31     8    2.409588014125E+00  7.193966318000E-03  9.194111122000E-03
    32    32     8    4.765421659178E+00  2.245610614832E+00 -1.221278174750E-01
    33    33     8    0.000000000000E+00 -2.401883066810E+00 -1.075107153840E-01
    34    34     8    4.779587324564E+00  4.552262957000E-03  2.194868316297E+00
    35    35     8    7.034137649294E+00  2.255986385559E+00  2.221916428828E+00
    36    36     8    2.347693520188E+00 -2.335431394924E+00  2.433981359468E+00
    37    37     8    0.000000000000E+00  2.341150025027E+00  1.695159365500E-02
    38    38     8    2.344962456721E+00  4.741397638753E+00 -1.095444828280E-01
    31    39     8   -2.409588014125E+00  7.193966318000E-03  9.194111122000E-03
    40    40     8    2.344414502304E+00  2.334807005850E+00  2.441774985443E+00
    36    41     8    4.686444129106E+00  4.675948336288E+00  2.437834584909E+00
    42    42     8    0.000000000000E+00 -2.707653639000E-03  2.309343332410E+00
    29    43     8    4.611875994553E+00  2.429371577268E+00  4.640259298799E+00
    44    44     8    7.034137649294E+00  4.662805287682E+00  4.637961314340E+00
    45    45     8    2.348159902421E+00 -5.104421590300E-02  4.746790717900E+00
    46    46     8    0.000000000000E+00  4.758491119128E+00  2.431183318290E+00
    34    47     8    2.254550324730E+00  7.015931994168E+00  2.198721541738E+00
    40    48     8   -2.344414502304E+00  2.334807005850E+00  2.441774985443E+00
    30    49     8    2.357898699939E+00  4.583477249479E+00  4.643696040346E+00
    45    50     8    4.685977746873E+00  6.960335515308E+00  4.750643943342E+00
    51    51     8    0.000000000000E+00  2.444954127402E+00  4.737295611243E+00
    38    52     8    4.689175192573E+00  4.745478487555E+00  6.843503945157E+00
    53    53     8    7.034137649294E+00  7.110119150156E+00  7.040576566477E+00
    32    54     8    2.268715990116E+00  2.249691463634E+00  6.830920610511E+00

 SYMMETRY CHANGED DURING OLD RUN :  INFORMATION ON SPACE GROUP LOST 
 NUMBER OF SYMMETRY OPERATORS         :    2
 *******************************************************************************
 LATTICE PARAMETERS (ANGSTROMS AND DEGREES) - BOHR = 0.5291772083 ANGSTROM
 PRIMITIVE CELL - CENTRING CODE 1/0 VOLUME=   685.834711 - DENSITY  3.310 g/cm^3
         A              B              C           ALPHA      BETA       GAMMA 
     9.88003885     9.89060117     9.93169437    59.717204  59.897395  60.310585
 *******************************************************************************
 ATOMS IN THE ASYMMETRIC UNIT   36 - ATOMS IN THE UNIT CELL:   54
     ATOM                 X/A                 Y/B                 Z/C    
 *******************************************************************************
      1 T  20 CA   -3.003142367288E-03 -8.250643244541E-05  8.250643244541E-05
      2 T  20 CA   -3.759281707697E-03  1.153560145945E-03  3.374003235591E-01
      3 T  20 CA   -3.563822219058E-03 -1.056083234186E-03 -3.319523136975E-01
      4 T  20 CA    1.644306408462E-03  3.385713367993E-01 -2.040185709859E-03
      5 T  20 CA   -4.400033884381E-03  3.345270510851E-01  3.349727356706E-01
      6 T  20 CA   -9.269916917113E-04  3.359451077818E-01 -3.359451077818E-01
      7 T  20 CA   -2.032541519766E-03 -3.334154633735E-01 -2.080318108550E-03
      8 T  20 CA   -1.202372250422E-03 -3.362016624499E-01  3.362016624499E-01
      9 T  12 MG   -7.578234750791E-04 -3.282455652261E-01 -3.353699835821E-01
     10 T  20 CA    3.406633432927E-01  4.308607319741E-03 -4.308607319741E-03
     11 T  20 CA    3.384471195062E-01 -1.971719652703E-03  3.314905454600E-01
     12 F  20 CA    3.381754574979E-01  2.040185709854E-03 -3.385713367993E-01
     13 T  12 MG    3.424205482123E-01  3.300410072489E-01  5.375887285612E-03
     14 F  12 MG    3.356266277165E-01  3.353699835820E-01  3.282455652262E-01
     15 T  20 CA    3.390011826290E-01  3.362184939255E-01 -3.362184939255E-01
     16 F  20 CA    3.347946019974E-01 -3.374003235591E-01 -1.153560145941E-03
     17 T  20 CA    3.379658861837E-01 -3.390664056912E-01  3.390664056912E-01
     18 T  12 MG    3.335252806972E-01 -3.407994081487E-01 -3.287429453218E-01
     19 T  12 MG   -3.370345689783E-01  6.141876207698E-03 -6.141876207698E-03
     20 F  20 CA   -3.375283230019E-01  2.080318108554E-03  3.334154633735E-01
     21 F  12 MG   -3.221625572531E-01 -5.375887285544E-03 -3.300410072489E-01
     22 F  20 CA   -3.365722191508E-01  3.319523136975E-01  1.056083234181E-03
     23 F  12 MG   -3.360170727735E-01  3.287429453218E-01  3.407994081487E-01
     24 T  12 MG   -3.440990433918E-01  3.336378446282E-01 -3.336378446282E-01
     25 F  20 CA   -3.320340546862E-01 -3.314905454599E-01  1.971719652634E-03
     26 T  12 MG   -3.384122380303E-01 -3.414406668912E-01  3.414406668912E-01
     27 F  20 CA   -3.349002471284E-01 -3.349727356705E-01 -3.345270510852E-01
     28 T   8 O    -1.773299809726E-01 -1.668245581676E-01  1.668245581676E-01
     29 T   8 O    -1.655389229914E-01 -1.672823941893E-01 -4.883595941381E-01
     30 T   8 O    -1.719790759632E-01 -1.605182227485E-01 -1.746897042924E-01
     31 T   8 O    -1.701046303097E-01  1.714263758163E-01  1.711299024743E-01
     32 T   8 O    -1.874608005028E-01  1.697186586440E-01 -4.922480294392E-01
     33 T   8 O    -1.789164514450E-01  1.636439052802E-01 -1.636439052802E-01
     34 T   8 O    -1.816746319263E-01  4.973443047621E-01  1.821401697913E-01
     35 T   8 O    -1.795216850423E-01  4.989035146995E-01 -4.989035146989E-01
     36 T   8 O    -1.584041122072E-01 -4.913515817095E-01 -1.748912987629E-01
     37 T   8 O     1.680794165246E-01 -1.658264509032E-01  1.658264509032E-01
     38 T   8 O     1.633770223464E-01 -1.795066721743E-01 -4.871244667603E-01
     39 F   8 O     1.724516479810E-01 -1.711299024743E-01 -1.714263758163E-01
     40 T   8 O     1.752516580971E-01  1.757444070357E-01  1.575465547271E-01
     41 F   8 O     1.753530073203E-01  1.748912987630E-01  4.913515817099E-01
     42 T   8 O     1.657773815649E-01  1.663568742573E-01 -1.663568742573E-01
     43 F   8 O     1.788190886806E-01  4.883595941380E-01  1.672823941899E-01
     44 T   8 O     1.656587697077E-01 -4.989871174237E-01  4.989871174243E-01
     45 T   8 O     1.705976558223E-01 -4.879013751362E-01 -1.782752026483E-01
     46 T   8 O    -4.861204892203E-01 -1.645983263642E-01  1.645983263642E-01
     47 F   8 O     4.978098426269E-01 -1.821401697911E-01 -4.973443047617E-01
     48 F   8 O    -4.914573801400E-01 -1.575465547271E-01 -1.757444070357E-01
     49 F   8 O     4.928129969956E-01  1.746897042923E-01  1.605182227486E-01
     50 F   8 O    -4.955789219623E-01  1.782752026486E-01  4.879013751365E-01
     51 T   8 O    -4.852753900036E-01  1.664087836350E-01 -1.664087836350E-01
     52 F   8 O     4.967458834113E-01  4.871244667602E-01  1.795066721750E-01
     53 T   8 O    -4.872397477321E-01  4.992665471459E-01 -4.992665471454E-01
     54 F   8 O     4.900098287016E-01  4.922480294391E-01 -1.697186586434E-01

 T = ATOM BELONGING TO THE ASYMMETRIC UNIT
 *******************************************************************************
 * GEOMETRY EDITING - INPUT COORDINATES ARE GIVEN IN ANGSTROM         
 *******************************************************************************

 GEOMETRY NOW FULLY CONSISTENT WITH THE GROUP

 GCALCO - MAX INDICES DIRECT LATTICE VECTOR    14    14    14
 NO.OF VECTORS CREATED 6999 STARS 1842 RMAX   198.02575 BOHR

 GEOMETRY FOR WAVE FUNCTION - DIMENSIONALITY OF THE SYSTEM    3
 (NON PERIODIC DIRECTION: LATTICE PARAMETER FORMALLY SET TO 500)
 *******************************************************************************
 LATTICE PARAMETERS (ANGSTROMS AND DEGREES) - BOHR = 0.5291772083 ANGSTROM
 PRIMITIVE CELL - CENTRING CODE 1/0 VOLUME=   685.834711 - DENSITY  3.310 g/cm^3
         A              B              C           ALPHA      BETA       GAMMA 
     9.88003885     9.89060117     9.93169437    59.717204  59.897395  60.310585
 *******************************************************************************
 ATOMS IN THE ASYMMETRIC UNIT   36 - ATOMS IN THE UNIT CELL:   54
     ATOM                 X/A                 Y/B                 Z/C    
 *******************************************************************************
      1 T  20 CA   -3.003142367288E-03 -8.250643244541E-05  8.250643244541E-05
      2 T  20 CA   -3.759281707697E-03  1.153560145945E-03  3.374003235591E-01
      3 T  20 CA   -3.563822219058E-03 -1.056083234186E-03 -3.319523136975E-01
      4 T  20 CA    1.644306408462E-03  3.385713367993E-01 -2.040185709859E-03
      5 T  20 CA   -4.400033884381E-03  3.345270510851E-01  3.349727356706E-01
      6 T  20 CA   -9.269916917113E-04  3.359451077818E-01 -3.359451077818E-01
      7 T  20 CA   -2.032541519766E-03 -3.334154633735E-01 -2.080318108550E-03
      8 T  20 CA   -1.202372250422E-03 -3.362016624499E-01  3.362016624499E-01
      9 T  12 MG   -7.578234750791E-04 -3.282455652261E-01 -3.353699835821E-01
     10 T  20 CA    3.406633432927E-01  4.308607319741E-03 -4.308607319741E-03
     11 T  20 CA    3.384471195062E-01 -1.971719652703E-03  3.314905454600E-01
     12 F  20 CA    3.381754574979E-01  2.040185709854E-03 -3.385713367993E-01
     13 T  12 MG    3.424205482123E-01  3.300410072489E-01  5.375887285612E-03
     14 F  12 MG    3.356266277166E-01  3.353699835821E-01  3.282455652261E-01
     15 T  20 CA    3.390011826290E-01  3.362184939255E-01 -3.362184939255E-01
     16 F  20 CA    3.347946019974E-01 -3.374003235591E-01 -1.153560145941E-03
     17 T  20 CA    3.379658861837E-01 -3.390664056912E-01  3.390664056912E-01
     18 T  12 MG    3.335252806972E-01 -3.407994081487E-01 -3.287429453218E-01
     19 T  12 MG   -3.370345689783E-01  6.141876207698E-03 -6.141876207698E-03
     20 F  20 CA   -3.375283230019E-01  2.080318108554E-03  3.334154633735E-01
     21 F  12 MG   -3.221625572532E-01 -5.375887285616E-03 -3.300410072489E-01
     22 F  20 CA   -3.365722191508E-01  3.319523136975E-01  1.056083234181E-03
     23 F  12 MG   -3.360170727735E-01  3.287429453218E-01  3.407994081487E-01
     24 T  12 MG   -3.440990433918E-01  3.336378446282E-01 -3.336378446282E-01
     25 F  20 CA   -3.320340546864E-01 -3.314905454600E-01  1.971719652707E-03
     26 T  12 MG   -3.384122380303E-01 -3.414406668912E-01  3.414406668912E-01
     27 F  20 CA   -3.349002471285E-01 -3.349727356707E-01 -3.345270510851E-01
     28 T   8 O    -1.773299809726E-01 -1.668245581676E-01  1.668245581676E-01
     29 T   8 O    -1.655389229914E-01 -1.672823941893E-01 -4.883595941381E-01
     30 T   8 O    -1.719790759632E-01 -1.605182227485E-01 -1.746897042924E-01
     31 T   8 O    -1.701046303097E-01  1.714263758163E-01  1.711299024743E-01
     32 T   8 O    -1.874608005028E-01  1.697186586440E-01 -4.922480294392E-01
     33 T   8 O    -1.789164514450E-01  1.636439052802E-01 -1.636439052802E-01
     34 T   8 O    -1.816746319263E-01  4.973443047621E-01  1.821401697913E-01
     35 T   8 O    -1.795216850420E-01  4.989035146992E-01 -4.989035146992E-01
     36 T   8 O    -1.584041122072E-01 -4.913515817095E-01 -1.748912987629E-01
     37 T   8 O     1.680794165246E-01 -1.658264509032E-01  1.658264509032E-01
     38 T   8 O     1.633770223464E-01 -1.795066721743E-01 -4.871244667603E-01
     39 F   8 O     1.724516479810E-01 -1.711299024743E-01 -1.714263758163E-01
     40 T   8 O     1.752516580971E-01  1.757444070357E-01  1.575465547271E-01
     41 F   8 O     1.753530073205E-01  1.748912987629E-01  4.913515817095E-01
     42 T   8 O     1.657773815649E-01  1.663568742573E-01 -1.663568742573E-01
     43 F   8 O     1.788190886813E-01  4.883595941380E-01  1.672823941893E-01
     44 T   8 O     1.656587697081E-01 -4.989871174240E-01  4.989871174240E-01
     45 T   8 O     1.705976558223E-01 -4.879013751362E-01 -1.782752026483E-01
     46 T   8 O    -4.861204892203E-01 -1.645983263642E-01  1.645983263642E-01
     47 F   8 O     4.978098426272E-01 -1.821401697913E-01 -4.973443047620E-01
     48 F   8 O    -4.914573801400E-01 -1.575465547271E-01 -1.757444070357E-01
     49 F   8 O     4.928129969958E-01  1.746897042924E-01  1.605182227485E-01
     50 F   8 O    -4.955789219622E-01  1.782752026483E-01  4.879013751362E-01
     51 T   8 O    -4.852753900036E-01  1.664087836350E-01 -1.664087836350E-01
     52 F   8 O     4.967458834119E-01  4.871244667603E-01  1.795066721743E-01
     53 T   8 O    -4.872397477317E-01  4.992665471457E-01 -4.992665471457E-01
     54 F   8 O     4.900098287022E-01  4.922480294392E-01 -1.697186586440E-01

 T = ATOM BELONGING TO THE ASYMMETRIC UNIT

 ****    2 SYMMOPS - TRANSLATORS IN FRACTIONAL UNITS
 **** MATRICES AND TRANSLATORS IN THE CRYSTALLOGRAPHIC REFERENCE FRAME
   V INV                    ROTATION MATRICES                   TRANSLATORS
   1   1  1.00  0.00  0.00  0.00  1.00  0.00  0.00  0.00  1.00  0.00  0.00  0.00
   2   2  1.00  1.00  1.00  0.00 -0.00 -1.00  0.00 -1.00  0.00  0.00  0.00  0.00

 DIRECT LATTICE VECTORS CARTESIAN COMPONENTS (ANGSTROM)
          X                    Y                    Z
   0.000000000000E+00   0.701546058001E+01   0.695690165343E+01
   0.703413764929E+01   0.408084880145E-02   0.695304842799E+01
   0.703413764929E+01   0.701137973121E+01   0.385322544126E-02


 CARTESIAN COORDINATES - PRIMITIVE CELL
 *******************************************************************************
 *      ATOM          X(ANGSTROM)         Y(ANGSTROM)         Z(ANGSTROM)
 *******************************************************************************
    1    20 CA    0.000000000000E+00 -2.049027966200E-02 -2.146591940500E-02
    2    20 CA    2.381434619683E+00  2.339273404781E+00 -1.683211405800E-02
    3    20 CA   -2.342426902387E+00 -2.352449887995E+00 -3.341524566000E-02
    4    20 CA    2.367206440037E+00 -1.387291510000E-03  2.365534317771E+00
    5    20 CA    4.709353656210E+00  2.319117939438E+00  2.296662909129E+00
    6    20 CA    0.000000000000E+00 -2.360571051981E+00  2.328099141284E+00
    7    20 CA   -2.359923507701E+00 -3.020573322400E-02 -2.332402070871E+00
    8    20 CA    0.000000000000E+00  2.347430338424E+00 -2.344695765283E+00
    9    12 MG   -4.667963116526E+00 -2.358062306581E+00 -2.288871670830E+00
   10    20 CA    0.000000000000E+00  2.359718556668E+00  2.399902729532E+00
   11    20 CA    2.317880778761E+00  4.698560470550E+00  2.342111170863E+00
   12    20 CA   -2.367206440037E+00 -1.387291509999E-03  2.365534317771E+00
   13    12 MG    2.359368606053E+00  2.441277092369E+00  4.676997899156E+00
   14    12 MG    4.667963116526E+00  4.657398273429E+00  4.668029982600E+00
   15    20 CA    0.000000000000E+00  2.226595658100E-02  4.694845832942E+00
   16    20 CA   -2.381434619683E+00  2.339273404781E+00 -1.683211405800E-02
   17    20 CA    0.000000000000E+00  4.746925997572E+00 -5.043207380000E-03
   18    12 MG   -4.709653076341E+00  3.350108470400E-02 -5.055893302600E-02
   19    12 MG    0.000000000000E+00 -2.407490695054E+00 -2.302035253511E+00
   20    20 CA    2.359923507701E+00 -3.020573322400E-02 -2.332402070871E+00
   21    12 MG   -2.359368606053E+00 -4.574183487641E+00 -2.279903754274E+00
   22    20 CA    2.342426902387E+00 -2.352449887995E+00 -3.341524566000E-02
   23    12 MG    4.709653076341E+00  3.350108470400E-02 -5.055893302600E-02
   24    12 MG    0.000000000000E+00 -4.751913370327E+00 -7.534869463700E-02
   25    20 CA   -2.317880778761E+00 -2.316900109460E+00 -4.614790482567E+00
   26    12 MG    0.000000000000E+00  1.845908782100E-02 -4.727038502610E+00
   27    20 CA   -4.709353656210E+00 -4.696342640572E+00 -4.660238744301E+00
   28     8 O     0.000000000000E+00 -7.506195116100E-02 -2.392963657116E+00
   29     8 O     2.422261654741E+00  2.425290728467E+00 -2.312789129186E+00
   30     8 O    -2.357898699939E+00 -2.431983330530E+00 -2.313205613082E+00
   31     8 O     2.409588014125E+00  7.193966318000E-03  9.194111122000E-03
   32     8 O     4.765421659178E+00  2.245610614832E+00 -1.221278174750E-01
   33     8 O     0.000000000000E+00 -2.401883066810E+00 -1.075107153840E-01
   34     8 O     4.779587324564E+00  4.552262957000E-03  2.194868316297E+00
   35     8 O     7.034137649290E+00  2.255986385560E+00  2.221916428829E+00
   36     8 O     2.347693520188E+00 -2.335431394924E+00  2.433981359468E+00
   37     8 O     0.000000000000E+00  2.341150025027E+00  1.695159365500E-02
   38     8 O     2.344962456721E+00  4.741397638753E+00 -1.095444828280E-01
   39     8 O    -2.409588014125E+00  7.193966318000E-03  9.194111122000E-03
   40     8 O     2.344414502304E+00  2.334807005850E+00  2.441774985443E+00
   41     8 O     4.686444129102E+00  4.675948336286E+00  2.437834584909E+00
   42     8 O     0.000000000000E+00 -2.707653639000E-03  2.309343332410E+00
   43     8 O     4.611875994549E+00  2.429371577268E+00  4.640259298804E+00
   44     8 O     7.034137649290E+00  4.662805287683E+00  4.637961314341E+00
   45     8 O     2.348159902421E+00 -5.104421590300E-02  4.746790717900E+00
   46     8 O     0.000000000000E+00  4.758491119128E+00  2.431183318290E+00
   47     8 O     2.254550324726E+00  7.015931994167E+00  2.198721541738E+00
   48     8 O    -2.344414502304E+00  2.334807005850E+00  2.441774985443E+00
   49     8 O     2.357898699939E+00  4.583477249480E+00  4.643696040348E+00
   50     8 O     4.685977746869E+00  6.960335515307E+00  4.750643943341E+00
   51     8 O     0.000000000000E+00  2.444954127402E+00  4.737295611243E+00
   52     8 O     4.689175192569E+00  4.745478487554E+00  6.843503945162E+00
   53     8 O     7.034137649290E+00  7.110119150157E+00  7.040576566478E+00
   54     8 O     2.268715990112E+00  2.249691463633E+00  6.830920610515E+00
 WARNING **** CRYSTA **** TESTGEOM  DIRECTIVE - GEOMETRY EDITING COMPLETE
 TTTTTTTTTTTTTTTTTTTTTTTTTTTTTT END         TELAPSE        0.01 TCPU        0.01
 EEEEEEEEEE TERMINATION  DATE 10 03 2023 TIME 10:30:10.0
Fri 10 Mar 2023 10:30:10 GMT
Contents of temporary directory:
total 16
-rw-r--r--  1 brunocamino  admin  4271 10 Mar 10:30 fort.34
SCF abnormal end - no wf written in fort.9
geometry input file fort.34 saved as /Users/brunocamino/Desktop/Imperial/cmsg_icl/solid-solutions/./data/crystal/testgeom_opt/CaMgO_testgeom_1770.gui
temporary directory /Users/brunocamino/crystal/tmp removed
