date Fri 10 Mar 2023 10:27:46 GMT
hostname MacBook-Pro-8
system Darwin MacBook-Pro-8 21.6.0 Darwin Kernel Version 21.6.0: Mon Aug 22 20:20:05 PDT 2022; root:xnu-8020.140.49~2/RELEASE_ARM64_T8101 arm64
user brunocamino
output data in /Users/brunocamino/Desktop/Imperial/cmsg_icl/solid-solutions/./data/crystal/testgeom_opt/CaMgO_testgeom_41.out
crystal executable in /Users/brunocamino/crystal
input data in /Users/brunocamino/Desktop/Imperial/cmsg_icl/solid-solutions/./data/crystal/testgeom_opt/CaMgO_testgeom_41.d12
temporary directory /Users/brunocamino/crystal/tmp
external geometry input from /Users/brunocamino/Desktop/Imperial/cmsg_icl/solid-solutions/./data/crystal/testgeom_opt/CaMgO_testgeom_41.gui
external geometry input saved in /Users/brunocamino/Desktop/Imperial/cmsg_icl/solid-solutions/./data/crystal/testgeom_opt/CaMgO_testgeom_41_inp.gui
Bulk 
EXTERNAL
EXTPRT
TESTGEOM
END

         
 *******************************************************************************
 *                                                                             *
 *                               CRYSTAL17                                     *
 *                      public : 1.0.1 - Feb 1st, 2017                         *
 *                       HTTP://WWW.CRYSTAL.UNITO.IT                           *
 *                                                                             *
 *                              MAIN AUTHORS                                   *
 *                                                                             *
 *  R. DOVESI(1,11), V.R. SAUNDERS(2), C. ROETTI(1,11), R. ORLANDO(1,11),      *
 *  C.M. ZICOVICH-WILSON(1,3), F. PASCALE(4), B. CIVALLERI(1,11),              *
 *  K. DOLL(5), N.M. HARRISON(2,6), I.J. BUSH(7), Ph. D'ARCO(8),               *
 *  M. LLUNELL(9), M. CAUSA'(10), Y. NOEL(8), L. MASCHIO(1,11), A. ERBA(1,11)  *
 *  M. RE'RAT(14), S. CASASSA(1,11)                                            *
 *                                                                             *
 *        CONTRIBUTIONS TO THE CODE HAVE ALSO BEEN GIVEN BY                    *
 *                                                                             *
 *  M. FERRABONE(1,11), M. DE LA PIERRE(1,11), M. FERRERO(1,11),               *
 *  J. BAIMA(1,11), E. ALBANESE(1,11), M.F. PEINTINGER(12), R. BAST(13),       *
 *  B. KIRTMAN(15), V. LACIVITA(1,11), R. DEMICHELIS(1,16)                     *
 *  G. BRANDEBURG(17), S. SALUSTRO(1,11), G. SANSONE(1,11)                     *
 *  M.T. RUGGIERO(18)                                                          *
 *                                                                             *
 * (1) THEORETICAL CHEMISTRY GROUP - UNIVERSITA' DI TORINO - TORINO (ITALY)    *

 * (2) COMPUTATIONAL SCIENCE & ENGINEERING DEPARTMENT - STFC DARESBURY (UK)    *
 * (3) UNIVERSIDAD AUTONOMA DEL ESTADO DE MORELOS - CUERNAVACA (MEXICO)        *
 * (4) UNIVERSITE' DE LORRAINE - NANCY (FRANCE)                                *
 * (5) UNIVERSITAET STUTTGART- STUTTGART (GERMANY)                             *
 * (6) IMPERIAL COLLEGE - LONDON (UK)                                          *
 * (7) OXFORD E-RESEARCH CENTRE - OXFORD (UK)                                  *
 * (8) UPMC - SORBONNE UNIVERSITES - PARIS (FRANCE)                            *
 * (9) UNIVERSIDAD DE BARCELONA - BARCELONA (SPAIN)                            *
 *(10) UNIVERSITA' DI NAPOLI "FEDERICO II" - NAPOLI (ITALY)                    *
 *(11) NIS - NANOSTRUCTURED INTERFACES AND SURFACES - TORINO (ITALY)           *
 *(12) MPI FUER CHEMISCHE ENERGIEKONVERSION - MUELHEIM AN DER RUHR (GERMANY)   *
 *(13) UNIVERSITY OF TROMSO - TROMSO (NORWAY)                                  *
 *(14) UNIVERSITE' DE PAU ET DES PAYS DE L'ADOUR - PAU (FRANCE)                *
 *(15) UNIVERSITY OF CALIFORNIA SANTA BARBARA - SANTA BARBARA (USA)            *
 *(16) CURTIN UNIVERSITY - PERTH (AUSTRALIA)                                   *
 *(17) UNIVERSITY COLLEGE LONDON - LONDON (UK)                                 *
 *(18) CAMBRIDGE UNIVERSITY - CAMBRIDGE (UK)                                   *
 *                                                                             *
 *******************************************************************************
 EEEEEEEEEE STARTING  DATE 10 03 2023 TIME 10:27:46.6
 Bulk                                                                            

 GEOMETRY INPUT FROM EXTERNAL FILE (FORTRAN UNIT 34)
 3D - CRYSTAL 

 *******************************************************************************
 LATTICE PARAMETERS  (ANGSTROMS AND DEGREES) - PRIMITIVE CELL
       A          B          C        ALPHA      BETA     GAMMA        VOLUME
    9.90698    9.90741    9.86860    60.13902  60.03425  59.90678    685.331931
 INFORMATION **** CHKGRP **** SPGR WITH NO INVERSION

 NUMBER OF IRREDUCIBLE ATOMS IN THE CELL:   54

 CARTESIAN COORDINATES (ANGSTROM) - IRREDUCIBLE ATOMS AND SYMMETRY RELATED

 AT.IRR.  AT  AT.N.          X                   Y                   Z
     1     1    20   -3.739549856000E-03 -3.789893040000E-03 -2.541906480000E-02
     2     2    20    2.325877649357E+00  2.322191291541E+00 -2.626638597800E-02
     3     3    20   -2.337931916292E+00 -2.320471787909E+00 -2.488763528700E-02
     4     4    20    2.355888925410E+00 -3.982063817400E-02  2.348599862080E+00
     5     5    20    4.672792097329E+00  2.318655977310E+00  2.325062970530E+00
     6     6    20    3.680941786800E-02 -2.365733477167E+00  2.324784782773E+00
     7     7    20   -2.315329488609E+00 -3.019700686000E-02 -2.334202970912E+00
     8     8    20    2.943662401500E-02  2.306855482192E+00 -2.351257356745E+00
     9     9    20   -4.626767024454E+00 -2.351870456102E+00 -2.341960130965E+00
    10    10    20   -6.569532771700E-02  2.375476813591E+00  2.361099896637E+00
    11    11    20    2.252200675910E+00  4.725943775407E+00  2.336903525729E+00
    12    12    20   -2.380756316633E+00  7.676012471000E-02  2.341109148429E+00
    13    13    20    2.303653003241E+00  2.334089335051E+00  4.741058949667E+00
    14    14    20    4.638628948987E+00  4.664934076344E+00  4.711079831681E+00
    15    15    20    2.950307800000E-04  2.540805239200E-02  4.739221823992E+00
    16    16    12   -2.343894001263E+00  2.343306363511E+00  2.865852221100E-02
    17    17    12   -5.035596736000E-02  4.538142753448E+00  1.900112018700E-02
    18    18    12   -4.704393191048E+00  1.150594471940E-01  4.460530173000E-03
    19    19    12   -2.340250034400E-02 -2.370247623094E+00 -2.249024836162E+00
    20    20    12    2.332308648750E+00  3.179296771200E-02 -2.338775258095E+00
    21    21    12   -2.328340439572E+00 -4.633245607999E+00 -2.314539103678E+00
    22    22    20    2.350485821480E+00 -2.384042603324E+00  9.836008135000E-03
    23    23    20    4.701616260214E+00 -2.278257072800E-02 -4.688020881000E-03
    24    24    12   -2.061982164800E-02 -4.658449919129E+00 -6.683425738000E-03
    25    25    12   -2.286607133496E+00 -2.432155865958E+00 -4.694908125259E+00
    26    26    20    2.941518236800E-02 -2.080386647100E-02 -4.711748763902E+00
    27    27    12   -4.577073483144E+00 -4.689629416977E+00 -4.734300042345E+00
    28    28     8    9.271036903800E-02 -1.014309447360E-01 -2.335918582070E+00
    29    29     8    2.420763797344E+00  2.231256304219E+00 -2.399528083464E+00
    30    30     8   -2.220276009318E+00 -2.433292176890E+00 -2.412957500445E+00
    31    31     8    2.335179686342E+00 -8.757476854000E-03 -7.189187848200E-02
    32    32     8    4.723016127083E+00  2.331064175173E+00 -7.013387309600E-02
    33    33     8   -1.885262077000E-03 -2.425765448324E+00 -7.665464838100E-02
    34    34     8    4.652696400602E+00 -7.190146774700E-02  2.343411154994E+00
    35    35     8    7.050260956443E+00  2.331279043214E+00  2.251336434874E+00
    36    36     8    2.427232737921E+00 -2.427013482832E+00  2.344783384791E+00
    37    37     8   -8.084870956200E-02  2.390014260959E+00 -4.517334914000E-03
    38    38     8    2.209412202370E+00  4.724254634767E+00  4.500413173000E-03
    39    39     8   -2.408388537919E+00  1.035990523970E-01 -1.471732742000E-03
    40    40     8    2.324637245352E+00  2.326572932754E+00  2.344091088488E+00
    41    41     8    4.647930508512E+00  4.657806531498E+00  2.341679195002E+00
    42    42     8    1.124994757000E-02 -9.897547256000E-03  2.343599255042E+00
    43    43     8    4.659241525803E+00  2.323230843915E+00  4.750185262891E+00
    44    44     8    6.973884590798E+00  4.641550493990E+00  4.781788963293E+00
    45    45     8    2.335400488535E+00 -2.999524695000E-03  4.757791914572E+00
    46    46     8   -1.188451754580E-01  4.651686138987E+00  2.219772159090E+00
    47    47     8    2.324558077667E+00  7.103344086468E+00  2.340195586924E+00
    48    48     8   -2.414524807579E+00  2.431086494204E+00  2.300144356910E+00
    49    49     8    2.222711668844E+00  4.741483167944E+00  4.674778721801E+00
    50    50     8    4.562695683284E+00  7.081477390810E+00  4.683780179887E+00
    51    51     8   -8.557689479800E-02  2.436204525811E+00  4.767591105431E+00
    52    52     8    4.757779159167E+00  4.550920058500E+00  7.082986645993E+00
    53    53     8    7.090816500553E+00  7.134416515769E+00  7.016474038662E+00
    54    54     8    2.381536211035E+00  2.247804646178E+00  7.103456390686E+00

 SYMMETRY CHANGED DURING OLD RUN :  INFORMATION ON SPACE GROUP LOST 
 NUMBER OF SYMMETRY OPERATORS         :    1
 *******************************************************************************
 LATTICE PARAMETERS (ANGSTROMS AND DEGREES) - BOHR = 0.5291772083 ANGSTROM
 PRIMITIVE CELL - CENTRING CODE 1/0 VOLUME=   685.331931 - DENSITY  3.312 g/cm^3
         A              B              C           ALPHA      BETA       GAMMA 
     9.90698489     9.90740758     9.86859648    60.139016  60.034254  59.906780
 *******************************************************************************
 ATOMS IN THE ASYMMETRIC UNIT   54 - ATOMS IN THE UNIT CELL:   54
     ATOM                 X/A                 Y/B                 Z/C    
 *******************************************************************************
      1 T  20 CA   -1.815563389834E-03 -1.805326902982E-03  1.272234105281E-03
      2 T  20 CA   -2.318558829121E-03 -1.611790898753E-03  3.350114953085E-01
      3 T  20 CA   -3.432533980515E-04 -3.012650768819E-03 -3.321075738390E-01
      4 T  20 CA   -3.939621787636E-03  3.383023758075E-01 -1.125318803881E-03
      5 T  20 CA   -2.828583300145E-03  3.336510726966E-01  3.356436604731E-01
      6 T  20 CA   -5.943911521253E-03  3.371017537575E-01 -3.323452242610E-01
      7 T  20 CA   -2.939035966432E-03 -3.293772851600E-01 -1.999064719021E-03
      8 T  20 CA   -4.890095366790E-03 -3.300458124882E-01  3.347751980176E-01
      9 T  20 CA   -4.042222038350E-03 -3.291920620870E-01 -3.335116132773E-01
     10 T  20 CA    3.427880803384E-01 -6.393363230454E-03 -3.043309661991E-03
     11 T  20 CA    3.432087000386E-01 -1.044837968267E-02  3.332708371307E-01
     12 T  20 CA    3.427124198911E-01 -8.977863172127E-03 -3.323013434032E-01
     13 T  20 CA    3.400093800343E-01  3.352142510935E-01 -5.549764841476E-03
     14 T  20 CA    3.373936182021E-01  3.333700064029E-01  3.309987408950E-01
     15 T  20 CA    3.396786882568E-01  3.354697476979E-01 -3.359746176699E-01
     16 T  12 MG    3.371773107020E-01 -3.328514110301E-01 -2.643464707745E-03
     17 T  12 MG    3.292555801465E-01 -3.264923809515E-01  3.197497502955E-01
     18 T  12 MG    3.450881132298E-01 -3.440167367431E-01 -3.298213409202E-01
     19 T  12 MG   -3.280500018907E-01  7.629756498863E-03 -1.096776676158E-02
     20 T  12 MG   -3.313228530607E-01 -2.073506872733E-03  3.364241802634E-01
     21 T  12 MG   -3.295429870693E-01 -2.321482274692E-05 -3.336983203925E-01
     22 T  20 CA   -3.378154419890E-01  3.389723893555E-01 -2.542018878135E-03
     23 T  20 CA   -3.383115108859E-01  3.372090329791E-01  3.362409152900E-01
     24 T  12 MG   -3.318970693485E-01  3.308938332059E-01 -3.343316122270E-01
     25 T  12 MG   -3.449463844920E-01 -3.237053044941E-01 -3.533123163994E-03
     26 T  20 CA   -3.395164117504E-01 -3.317209123978E-01  3.364787167456E-01
     27 T  12 MG   -3.452174740467E-01 -3.288600630287E-01 -3.266914580709E-01
     28 T   8 O    -1.804206863995E-01 -1.523633206480E-01  1.659034200856E-01
     29 T   8 O    -1.848072384983E-01 -1.572270892751E-01 -4.955160271155E-01
     30 T   8 O    -1.870805569171E-01 -1.564912453006E-01 -1.615108580265E-01
     31 T   8 O    -1.728079319704E-01  1.623503976274E-01  1.721443260767E-01
     32 T   8 O    -1.763010815973E-01  1.659000207666E-01 -4.891321327606E-01
     33 T   8 O    -1.786769346724E-01  1.677292998152E-01 -1.682430029270E-01
     34 T   8 O    -1.709135219675E-01 -4.956754642011E-01  1.618407063401E-01
     35 T   8 O    -1.772647787102E-01  4.973647054478E-01 -4.875153782332E-01
     36 T   8 O    -1.799058564678E-01 -4.863088458511E-01 -1.665430218230E-01
     37 T   8 O     1.762536648241E-01 -1.768625307332E-01  1.655312501108E-01
     38 T   8 O     1.798597208484E-01 -1.793689412870E-01  4.963328435324E-01
     39 T   8 O     1.795921831184E-01 -1.795781646988E-01 -1.653844896295E-01
     40 T   8 O     1.670785793802E-01  1.666716774431E-01  1.662758356170E-01
     41 T   8 O     1.672917865327E-01  1.659267663630E-01 -4.999515579462E-01
     42 T   8 O     1.655754559860E-01  1.682918658832E-01 -1.669533423791E-01
     43 T   8 O     1.713674934695E-01 -4.950614778725E-01  1.621343986601E-01
     44 T   8 O     1.737018400728E-01 -4.930810245368E-01  4.919373100305E-01
     45 T   8 O     1.719213691747E-01 -4.943434983428E-01 -1.716898202066E-01
     46 T   8 O     4.991736887131E-01 -1.828816623250E-01  1.660852703651E-01
     47 T   8 O    -4.918424843261E-01 -1.749078346129E-01 -4.916582164908E-01
     48 T   8 O    -4.895508000772E-01 -1.825205590282E-01 -1.633457226003E-01
     49 T   8 O    -4.868917763402E-01  1.527080240150E-01  1.656208884493E-01
     50 T   8 O    -4.864328522748E-01  1.533418965125E-01 -4.995949448587E-01
     51 T   8 O    -4.798785207430E-01  1.591038092860E-01 -1.716611284018E-01
     52 T   8 O     4.898279587287E-01 -4.811754790702E-01  1.623240822320E-01
     53 T   8 O    -4.971991353425E-01  4.961901128927E-01 -4.805843887859E-01
     54 T   8 O     4.966995047546E-01 -4.849375930341E-01 -1.745250922445E-01

 T = ATOM BELONGING TO THE ASYMMETRIC UNIT
 *******************************************************************************
 * GEOMETRY EDITING - INPUT COORDINATES ARE GIVEN IN ANGSTROM         
 *******************************************************************************

 GCALCO - MAX INDICES DIRECT LATTICE VECTOR    15    14    15
 NO.OF VECTORS CREATED 6999 STARS 3500 RMAX   198.11966 BOHR

 GEOMETRY FOR WAVE FUNCTION - DIMENSIONALITY OF THE SYSTEM    3
 (NON PERIODIC DIRECTION: LATTICE PARAMETER FORMALLY SET TO 500)
 *******************************************************************************
 LATTICE PARAMETERS (ANGSTROMS AND DEGREES) - BOHR = 0.5291772083 ANGSTROM
 PRIMITIVE CELL - CENTRING CODE 1/0 VOLUME=   685.331931 - DENSITY  3.312 g/cm^3
         A              B              C           ALPHA      BETA       GAMMA 
     9.90698489     9.90740758     9.86859648    60.139016  60.034254  59.906780
 *******************************************************************************
 ATOMS IN THE ASYMMETRIC UNIT   54 - ATOMS IN THE UNIT CELL:   54
     ATOM                 X/A                 Y/B                 Z/C    
 *******************************************************************************
      1 T  20 CA   -1.815563389834E-03 -1.805326902982E-03  1.272234105281E-03
      2 T  20 CA   -2.318558829121E-03 -1.611790898753E-03  3.350114953085E-01
      3 T  20 CA   -3.432533980516E-04 -3.012650768819E-03 -3.321075738390E-01
      4 T  20 CA   -3.939621787636E-03  3.383023758075E-01 -1.125318803881E-03
      5 T  20 CA   -2.828583300145E-03  3.336510726966E-01  3.356436604731E-01
      6 T  20 CA   -5.943911521253E-03  3.371017537575E-01 -3.323452242610E-01
      7 T  20 CA   -2.939035966432E-03 -3.293772851600E-01 -1.999064719021E-03
      8 T  20 CA   -4.890095366790E-03 -3.300458124882E-01  3.347751980176E-01
      9 T  20 CA   -4.042222038350E-03 -3.291920620870E-01 -3.335116132773E-01
     10 T  20 CA    3.427880803384E-01 -6.393363230454E-03 -3.043309661991E-03
     11 T  20 CA    3.432087000386E-01 -1.044837968267E-02  3.332708371307E-01
     12 T  20 CA    3.427124198911E-01 -8.977863172127E-03 -3.323013434032E-01
     13 T  20 CA    3.400093800343E-01  3.352142510935E-01 -5.549764841476E-03
     14 T  20 CA    3.373936182021E-01  3.333700064029E-01  3.309987408950E-01
     15 T  20 CA    3.396786882568E-01  3.354697476979E-01 -3.359746176699E-01
     16 T  12 MG    3.371773107020E-01 -3.328514110301E-01 -2.643464707745E-03
     17 T  12 MG    3.292555801465E-01 -3.264923809515E-01  3.197497502955E-01
     18 T  12 MG    3.450881132298E-01 -3.440167367431E-01 -3.298213409202E-01
     19 T  12 MG   -3.280500018907E-01  7.629756498862E-03 -1.096776676158E-02
     20 T  12 MG   -3.313228530607E-01 -2.073506872733E-03  3.364241802634E-01
     21 T  12 MG   -3.295429870693E-01 -2.321482274698E-05 -3.336983203925E-01
     22 T  20 CA   -3.378154419890E-01  3.389723893555E-01 -2.542018878135E-03
     23 T  20 CA   -3.383115108859E-01  3.372090329791E-01  3.362409152900E-01
     24 T  12 MG   -3.318970693485E-01  3.308938332059E-01 -3.343316122270E-01
     25 T  12 MG   -3.449463844920E-01 -3.237053044941E-01 -3.533123163994E-03
     26 T  20 CA   -3.395164117504E-01 -3.317209123978E-01  3.364787167456E-01
     27 T  12 MG   -3.452174740467E-01 -3.288600630287E-01 -3.266914580709E-01
     28 T   8 O    -1.804206863995E-01 -1.523633206480E-01  1.659034200856E-01
     29 T   8 O    -1.848072384983E-01 -1.572270892751E-01 -4.955160271155E-01
     30 T   8 O    -1.870805569171E-01 -1.564912453006E-01 -1.615108580265E-01
     31 T   8 O    -1.728079319704E-01  1.623503976274E-01  1.721443260767E-01
     32 T   8 O    -1.763010815973E-01  1.659000207666E-01 -4.891321327606E-01
     33 T   8 O    -1.786769346724E-01  1.677292998152E-01 -1.682430029270E-01
     34 T   8 O    -1.709135219675E-01 -4.956754642011E-01  1.618407063401E-01
     35 T   8 O    -1.772647787102E-01  4.973647054478E-01 -4.875153782332E-01
     36 T   8 O    -1.799058564678E-01 -4.863088458511E-01 -1.665430218230E-01
     37 T   8 O     1.762536648241E-01 -1.768625307332E-01  1.655312501108E-01
     38 T   8 O     1.798597208484E-01 -1.793689412870E-01  4.963328435324E-01
     39 T   8 O     1.795921831184E-01 -1.795781646988E-01 -1.653844896295E-01
     40 T   8 O     1.670785793802E-01  1.666716774431E-01  1.662758356170E-01
     41 T   8 O     1.672917865327E-01  1.659267663630E-01 -4.999515579462E-01
     42 T   8 O     1.655754559860E-01  1.682918658832E-01 -1.669533423791E-01
     43 T   8 O     1.713674934695E-01 -4.950614778725E-01  1.621343986601E-01
     44 T   8 O     1.737018400728E-01 -4.930810245368E-01  4.919373100305E-01
     45 T   8 O     1.719213691747E-01 -4.943434983428E-01 -1.716898202066E-01
     46 T   8 O     4.991736887131E-01 -1.828816623250E-01  1.660852703651E-01
     47 T   8 O    -4.918424843261E-01 -1.749078346129E-01 -4.916582164908E-01
     48 T   8 O    -4.895508000772E-01 -1.825205590282E-01 -1.633457226003E-01
     49 T   8 O    -4.868917763402E-01  1.527080240150E-01  1.656208884493E-01
     50 T   8 O    -4.864328522748E-01  1.533418965125E-01 -4.995949448587E-01
     51 T   8 O    -4.798785207430E-01  1.591038092860E-01 -1.716611284018E-01
     52 T   8 O     4.898279587287E-01 -4.811754790702E-01  1.623240822320E-01
     53 T   8 O    -4.971991353425E-01  4.961901128927E-01 -4.805843887859E-01
     54 T   8 O     4.966995047546E-01 -4.849375930341E-01 -1.745250922445E-01

 T = ATOM BELONGING TO THE ASYMMETRIC UNIT

 ****    1 SYMMOPS - TRANSLATORS IN FRACTIONAL UNITS
 **** MATRICES AND TRANSLATORS IN THE CRYSTALLOGRAPHIC REFERENCE FRAME
   V INV                    ROTATION MATRICES                   TRANSLATORS
   1   1  1.00  0.00  0.00  0.00  1.00  0.00  0.00  0.00  1.00  0.00  0.00  0.00

 DIRECT LATTICE VECTORS CARTESIAN COMPONENTS (ANGSTROM)
          X                    Y                    Z
   0.602647840309E-03   0.699159537305E+01   0.701897025364E+01
   0.698706846411E+01  -0.130701715079E-01   0.702406067393E+01
   0.697630013513E+01   0.698000123305E+01   0.396651028413E-02


 CARTESIAN COORDINATES - PRIMITIVE CELL
 *******************************************************************************
 *      ATOM          X(ANGSTROM)         Y(ANGSTROM)         Z(ANGSTROM)
 *******************************************************************************
    1    20 CA   -3.739549856000E-03 -3.789893040000E-03 -2.541906480000E-02
    2    20 CA    2.325877649357E+00  2.322191291541E+00 -2.626638597800E-02
    3    20 CA   -2.337931916292E+00 -2.320471787909E+00 -2.488763528700E-02
    4    20 CA    2.355888925410E+00 -3.982063817400E-02  2.348599862080E+00
    5    20 CA    4.672792097329E+00  2.318655977310E+00  2.325062970530E+00
    6    20 CA    3.680941786800E-02 -2.365733477167E+00  2.324784782773E+00
    7    20 CA   -2.315329488609E+00 -3.019700686000E-02 -2.334202970912E+00
    8    20 CA    2.943662401500E-02  2.306855482192E+00 -2.351257356745E+00
    9    20 CA   -4.626767024454E+00 -2.351870456102E+00 -2.341960130965E+00
   10    20 CA   -6.569532771700E-02  2.375476813591E+00  2.361099896637E+00
   11    20 CA    2.252200675910E+00  4.725943775407E+00  2.336903525729E+00
   12    20 CA   -2.380756316633E+00  7.676012471000E-02  2.341109148429E+00
   13    20 CA    2.303653003241E+00  2.334089335051E+00  4.741058949667E+00
   14    20 CA    4.638628948987E+00  4.664934076344E+00  4.711079831681E+00
   15    20 CA    2.950307800001E-04  2.540805239200E-02  4.739221823992E+00
   16    12 MG   -2.343894001263E+00  2.343306363511E+00  2.865852221100E-02
   17    12 MG   -5.035596736000E-02  4.538142753448E+00  1.900112018700E-02
   18    12 MG   -4.704393191048E+00  1.150594471940E-01  4.460530172999E-03
   19    12 MG   -2.340250034400E-02 -2.370247623094E+00 -2.249024836162E+00
   20    12 MG    2.332308648750E+00  3.179296771200E-02 -2.338775258095E+00
   21    12 MG   -2.328340439572E+00 -4.633245607999E+00 -2.314539103678E+00
   22    20 CA    2.350485821480E+00 -2.384042603324E+00  9.836008135001E-03
   23    20 CA    4.701616260214E+00 -2.278257072800E-02 -4.688020881000E-03
   24    12 MG   -2.061982164800E-02 -4.658449919129E+00 -6.683425738000E-03
   25    12 MG   -2.286607133496E+00 -2.432155865958E+00 -4.694908125259E+00
   26    20 CA    2.941518236800E-02 -2.080386647100E-02 -4.711748763902E+00
   27    12 MG   -4.577073483144E+00 -4.689629416977E+00 -4.734300042345E+00
   28     8 O     9.271036903800E-02 -1.014309447360E-01 -2.335918582070E+00
   29     8 O     2.420763797344E+00  2.231256304219E+00 -2.399528083464E+00
   30     8 O    -2.220276009318E+00 -2.433292176890E+00 -2.412957500445E+00
   31     8 O     2.335179686342E+00 -8.757476854000E-03 -7.189187848200E-02
   32     8 O     4.723016127083E+00  2.331064175173E+00 -7.013387309600E-02
   33     8 O    -1.885262077000E-03 -2.425765448324E+00 -7.665464838100E-02
   34     8 O     4.652696400602E+00 -7.190146774700E-02  2.343411154994E+00
   35     8 O     7.050260956443E+00  2.331279043214E+00  2.251336434874E+00
   36     8 O     2.427232737921E+00 -2.427013482832E+00  2.344783384791E+00
   37     8 O    -8.084870956200E-02  2.390014260959E+00 -4.517334914000E-03
   38     8 O     2.209412202370E+00  4.724254634767E+00  4.500413173000E-03
   39     8 O    -2.408388537919E+00  1.035990523970E-01 -1.471732742000E-03
   40     8 O     2.324637245352E+00  2.326572932754E+00  2.344091088488E+00
   41     8 O     4.647930508512E+00  4.657806531498E+00  2.341679195002E+00
   42     8 O     1.124994757000E-02 -9.897547256000E-03  2.343599255042E+00
   43     8 O     4.659241525803E+00  2.323230843915E+00  4.750185262891E+00
   44     8 O     6.973884590798E+00  4.641550493990E+00  4.781788963293E+00
   45     8 O     2.335400488535E+00 -2.999524695000E-03  4.757791914572E+00
   46     8 O    -1.188451754580E-01  4.651686138987E+00  2.219772159090E+00
   47     8 O     2.324558077667E+00  7.103344086468E+00  2.340195586924E+00
   48     8 O    -2.414524807579E+00  2.431086494204E+00  2.300144356910E+00
   49     8 O     2.222711668844E+00  4.741483167944E+00  4.674778721801E+00
   50     8 O     4.562695683284E+00  7.081477390810E+00  4.683780179887E+00
   51     8 O    -8.557689479800E-02  2.436204525811E+00  4.767591105431E+00
   52     8 O     4.757779159167E+00  4.550920058500E+00  7.082986645993E+00
   53     8 O     7.090816500553E+00  7.134416515769E+00  7.016474038662E+00
   54     8 O     2.381536211035E+00  2.247804646178E+00  7.103456390686E+00
 WARNING **** CRYSTA **** TESTGEOM  DIRECTIVE - GEOMETRY EDITING COMPLETE
 TTTTTTTTTTTTTTTTTTTTTTTTTTTTTT END         TELAPSE        0.01 TCPU        0.01
 EEEEEEEEEE TERMINATION  DATE 10 03 2023 TIME 10:27:46.6
Fri 10 Mar 2023 10:27:46 GMT
Contents of temporary directory:
total 8
-rw-r--r--  1 brunocamino  admin  4027 10 Mar 10:27 fort.34
SCF abnormal end - no wf written in fort.9
geometry input file fort.34 saved as /Users/brunocamino/Desktop/Imperial/cmsg_icl/solid-solutions/./data/crystal/testgeom_opt/CaMgO_testgeom_41.gui
temporary directory /Users/brunocamino/crystal/tmp removed
