date Fri 10 Mar 2023 10:32:46 GMT
hostname MacBook-Pro-8
system Darwin MacBook-Pro-8 21.6.0 Darwin Kernel Version 21.6.0: Mon Aug 22 20:20:05 PDT 2022; root:xnu-8020.140.49~2/RELEASE_ARM64_T8101 arm64
user brunocamino
output data in /Users/brunocamino/Desktop/Imperial/cmsg_icl/solid-solutions/./data/crystal/testgeom_opt/CaMgO_testgeom_3738.out
crystal executable in /Users/brunocamino/crystal
input data in /Users/brunocamino/Desktop/Imperial/cmsg_icl/solid-solutions/./data/crystal/testgeom_opt/CaMgO_testgeom_3738.d12
temporary directory /Users/brunocamino/crystal/tmp
external geometry input from /Users/brunocamino/Desktop/Imperial/cmsg_icl/solid-solutions/./data/crystal/testgeom_opt/CaMgO_testgeom_3738.gui
external geometry input saved in /Users/brunocamino/Desktop/Imperial/cmsg_icl/solid-solutions/./data/crystal/testgeom_opt/CaMgO_testgeom_3738_inp.gui
Bulk 
EXTERNAL
EXTPRT
TESTGEOM
END

         
 *******************************************************************************
 *                                                                             *
 *                               CRYSTAL17                                     *
 *                      public : 1.0.1 - Feb 1st, 2017                         *
 *                       HTTP://WWW.CRYSTAL.UNITO.IT                           *
 *                                                                             *
 *                              MAIN AUTHORS                                   *
 *                                                                             *
 *  R. DOVESI(1,11), V.R. SAUNDERS(2), C. ROETTI(1,11), R. ORLANDO(1,11),      *
 *  C.M. ZICOVICH-WILSON(1,3), F. PASCALE(4), B. CIVALLERI(1,11),              *
 *  K. DOLL(5), N.M. HARRISON(2,6), I.J. BUSH(7), Ph. D'ARCO(8),               *
 *  M. LLUNELL(9), M. CAUSA'(10), Y. NOEL(8), L. MASCHIO(1,11), A. ERBA(1,11)  *
 *  M. RE'RAT(14), S. CASASSA(1,11)                                            *
 *                                                                             *
 *        CONTRIBUTIONS TO THE CODE HAVE ALSO BEEN GIVEN BY                    *
 *                                                                             *
 *  M. FERRABONE(1,11), M. DE LA PIERRE(1,11), M. FERRERO(1,11),               *
 *  J. BAIMA(1,11), E. ALBANESE(1,11), M.F. PEINTINGER(12), R. BAST(13),       *
 *  B. KIRTMAN(15), V. LACIVITA(1,11), R. DEMICHELIS(1,16)                     *
 *  G. BRANDEBURG(17), S. SALUSTRO(1,11), G. SANSONE(1,11)                     *
 *  M.T. RUGGIERO(18)                                                          *
 *                                                                             *
 * (1) THEORETICAL CHEMISTRY GROUP - UNIVERSITA' DI TORINO - TORINO (ITALY)    *

 * (2) COMPUTATIONAL SCIENCE & ENGINEERING DEPARTMENT - STFC DARESBURY (UK)    *
 * (3) UNIVERSIDAD AUTONOMA DEL ESTADO DE MORELOS - CUERNAVACA (MEXICO)        *
 * (4) UNIVERSITE' DE LORRAINE - NANCY (FRANCE)                                *
 * (5) UNIVERSITAET STUTTGART- STUTTGART (GERMANY)                             *
 * (6) IMPERIAL COLLEGE - LONDON (UK)                                          *
 * (7) OXFORD E-RESEARCH CENTRE - OXFORD (UK)                                  *
 * (8) UPMC - SORBONNE UNIVERSITES - PARIS (FRANCE)                            *
 * (9) UNIVERSIDAD DE BARCELONA - BARCELONA (SPAIN)                            *
 *(10) UNIVERSITA' DI NAPOLI "FEDERICO II" - NAPOLI (ITALY)                    *
 *(11) NIS - NANOSTRUCTURED INTERFACES AND SURFACES - TORINO (ITALY)           *
 *(12) MPI FUER CHEMISCHE ENERGIEKONVERSION - MUELHEIM AN DER RUHR (GERMANY)   *
 *(13) UNIVERSITY OF TROMSO - TROMSO (NORWAY)                                  *
 *(14) UNIVERSITE' DE PAU ET DES PAYS DE L'ADOUR - PAU (FRANCE)                *
 *(15) UNIVERSITY OF CALIFORNIA SANTA BARBARA - SANTA BARBARA (USA)            *
 *(16) CURTIN UNIVERSITY - PERTH (AUSTRALIA)                                   *
 *(17) UNIVERSITY COLLEGE LONDON - LONDON (UK)                                 *
 *(18) CAMBRIDGE UNIVERSITY - CAMBRIDGE (UK)                                   *
 *                                                                             *
 *******************************************************************************
 EEEEEEEEEE STARTING  DATE 10 03 2023 TIME 10:32:46.9
 Bulk                                                                            

 GEOMETRY INPUT FROM EXTERNAL FILE (FORTRAN UNIT 34)
 3D - CRYSTAL 

 *******************************************************************************
 LATTICE PARAMETERS  (ANGSTROMS AND DEGREES) - PRIMITIVE CELL
       A          B          C        ALPHA      BETA     GAMMA        VOLUME
    9.90018    9.92590    9.91416    59.92885  60.00501  59.99155    688.507226
 INFORMATION **** CHKGRP **** SPGR WITH NO INVERSION

 NUMBER OF IRREDUCIBLE ATOMS IN THE CELL:   54

 CARTESIAN COORDINATES (ANGSTROM) - IRREDUCIBLE ATOMS AND SYMMETRY RELATED

 AT.IRR.  AT  AT.N.          X                   Y                   Z
     1     1    20   -2.552514115400E-02  1.709313596200E-02 -7.879799331800E-02
     2     2    20    2.327055793985E+00  2.349584399954E+00 -3.768326691400E-02
     3     3    20   -2.339024151003E+00 -2.351048756675E+00 -3.425340898100E-02
     4     4    20    2.361022790145E+00 -3.649663176700E-02  2.390030870202E+00
     5     5    20    4.699023175993E+00  2.348022658631E+00  2.345635928596E+00
     6     6    20    2.015392594400E-02 -2.349112020966E+00  2.379209372932E+00
     7     7    20   -2.317005013982E+00 -2.725938752600E-02 -2.353258334029E+00
     8     8    12    5.830433120900E-02  2.339861550519E+00 -2.285149122475E+00
     9     9    12   -4.794019437453E+00 -2.337985190110E+00 -2.368912509118E+00
    10    10    20   -3.722101110000E-04  2.376127745115E+00  2.367220590927E+00
    11    11    12    2.324070720956E+00  4.729012212492E+00  2.434956589858E+00
    12    12    20   -2.364817750114E+00  1.660341983600E-02  2.343973864817E+00
    13    13    20    2.318362012942E+00  2.350887754459E+00  4.700706540457E+00
    14    14    20    4.690904354361E+00  4.677027861082E+00  4.687246512581E+00
    15    15    12    1.114383473200E-02 -1.547639790600E-02  4.712815059670E+00
    16    16    12   -2.231105667930E+00  2.402141910267E+00 -1.098413078100E-02
    17    17    20    1.820901042800E-02  4.664586602952E+00  5.665007241000E-03
    18    18    20   -4.690770044995E+00  6.930445662000E-03 -2.336573544300E-02
    19    19    12    1.116683811400E-02 -2.353188226257E+00 -2.397331058837E+00
    20    20    12    2.248786678460E+00 -8.306614251700E-02 -2.383075419582E+00
    21    21    20   -2.340474553649E+00 -4.647692998468E+00 -2.366472149032E+00
    22    22    20    2.327129315067E+00 -2.364886460541E+00 -1.467041799300E-02
    23    23    20    4.694119301151E+00 -8.445743219000E-03 -1.978416190900E-02
    24    24    12   -4.082942757500E-02 -4.664666365748E+00 -1.135331348860E-01
    25    25    12   -2.405158256046E+00 -2.382097702816E+00 -4.619767607699E+00
    26    26    20    8.660453818000E-03 -1.005111763300E-02 -4.633379757857E+00
    27    27    20   -4.701559505450E+00 -4.661946965788E+00 -4.668952082589E+00
    28    28     8    1.171361514110E-01  9.167948980000E-04 -2.331627430136E+00
    29    29     8    2.199125308657E+00  2.385878582294E+00 -2.338236888693E+00
    30    30     8   -2.264049776816E+00 -2.334870728943E+00 -2.401424996104E+00
    31    31     8    2.360767967898E+00 -1.275335183500E-02 -4.780737962200E-02
    32    32     8    4.780277473853E+00  2.329863186904E+00  1.371367750000E-04
    33    33     8    1.530391544500E-02 -2.437192112195E+00 -7.775517771400E-02
    34    34     8    4.683971443552E+00 -1.041412921800E-01  2.332228857697E+00
    35    35     8    7.007745558840E+00  2.338662202467E+00  2.387920203295E+00
    36    36     8    2.419797392814E+00 -2.337234201513E+00  2.430664437326E+00
    37    37     8   -7.105749702600E-02  2.337479039218E+00 -7.673179803500E-02
    38    38     8    2.332672816290E+00  4.673218243883E+00 -5.279894267900E-02
    39    39     8   -2.341163256066E+00  8.185932610400E-02 -1.374675458300E-02
    40    40     8    2.338932461564E+00  2.412119739064E+00  2.325734043647E+00
    41    41     8    4.594597020653E+00  4.670696765111E+00  2.337116115259E+00
    42    42     8   -1.746619092600E-02  5.751780457000E-03  2.390794854382E+00
    43    43     8    4.794649658070E+00  2.337373791206E+00  4.776333545055E+00
    44    44     8    7.121813834511E+00  4.697655118126E+00  4.687259952881E+00
    45    45     8    2.233019067582E+00 -8.750646771400E-02  4.670652036393E+00
    46    46     8    6.616914003400E-02  4.664914427449E+00  2.449219700639E+00
    47    47     8    2.339939509585E+00  6.890388644734E+00  2.416998036033E+00
    48    48     8   -2.333390856248E+00  2.446415671847E+00  2.240827778700E+00
    49    49     8    2.251184357687E+00  4.759353846686E+00  4.588959322130E+00
    50    50     8    4.674663111237E+00  7.001577282871E+00  4.670542889254E+00
    51    51     8    1.526102544400E-02  2.333110379143E+00  4.757491816492E+00
    52    52     8    4.690193996181E+00  4.554823361529E+00  7.095190857303E+00
    53    53     8    7.007234277837E+00  7.095285567790E+00  6.915073774519E+00
    54    54     8    2.309723886289E+00  2.325821911334E+00  7.001674421795E+00

 SYMMETRY CHANGED DURING OLD RUN :  INFORMATION ON SPACE GROUP LOST 
 NUMBER OF SYMMETRY OPERATORS         :    1
 *******************************************************************************
 LATTICE PARAMETERS (ANGSTROMS AND DEGREES) - BOHR = 0.5291772083 ANGSTROM
 PRIMITIVE CELL - CENTRING CODE 1/0 VOLUME=   688.507226 - DENSITY  3.297 g/cm^3
         A              B              C           ALPHA      BETA       GAMMA 
     9.90018279     9.92589695     9.91415890    59.928854  60.005007  59.991553
 *******************************************************************************
 ATOMS IN THE ASYMMETRIC UNIT   54 - ATOMS IN THE UNIT CELL:   54
     ATOM                 X/A                 Y/B                 Z/C    
 *******************************************************************************
      1 T  20 CA   -2.588201326875E-03 -8.653484240972E-03  5.026442316963E-03
      2 T  20 CA   -9.131302668608E-04 -4.643045883391E-03  3.363339251202E-01
      3 T  20 CA   -3.477673154086E-03 -1.231672512985E-03 -3.321562130988E-01
      4 T  20 CA   -2.990401139628E-04  3.410784208769E-01 -4.940814775954E-03
      5 T  20 CA    2.263605768274E-05  3.342433511256E-01  3.351469976884E-01
      6 T  20 CA    7.744646516358E-04  3.386426140418E-01 -3.361567265695E-01
      7 T  20 CA   -4.768265678158E-03 -3.307731119502E-01  9.003186072327E-04
      8 T  12 MG   -3.125626823960E-04 -3.256915175381E-01  3.343736118002E-01
      9 T  12 MG    5.809568865878E-03 -3.433836051933E-01 -3.395394470087E-01
     10 T  20 CA    3.388981884485E-01 -8.848297830593E-04  6.636049222793E-04
     11 T  12 MG    3.459399141081E-01  1.563755011156E-03  3.295214150915E-01
     12 T  20 CA    3.374155439333E-01 -2.537557761479E-03 -3.346954866078E-01
     13 T  20 CA    3.383802973435E-01  3.323488092839E-01 -2.450937560932E-03
     14 T  20 CA    3.342777484784E-01  3.343444835431E-01  3.337216760438E-01
     15 T  12 MG    3.348519295168E-01  3.377793241055E-01 -3.367434733183E-01
     16 T  12 MG    3.299967117105E-01 -3.310939631842E-01  1.329801548039E-02
     17 T  20 CA    3.322888687606E-01 -3.311823504959E-01  3.339897148591E-01
     18 T  20 CA    3.335357074414E-01 -3.362064404573E-01 -3.321718309154E-01
     19 T  12 MG   -3.401814426314E-01 -2.129464507183E-03  3.893373014336E-03
     20 T  12 MG   -3.366774432923E-01 -3.769155495366E-03  3.244706261212E-01
     21 T  20 CA   -3.340673942408E-01 -3.654311647203E-03 -3.297725080796E-01
     22 T  20 CA   -3.360205308890E-01  3.334450660580E-01 -1.962136071854E-03
     23 T  20 CA   -3.369661897910E-01  3.334778069326E-01  3.353826736928E-01
     24 T  12 MG   -3.383881637422E-01  3.218894241491E-01 -3.279073255085E-01
     25 T  12 MG   -3.286327542509E-01 -3.305341200792E-01 -1.174212450627E-02
     26 T  20 CA   -3.324124308427E-01 -3.288859117614E-01  3.306614860319E-01
     27 T  20 CA   -3.311330248708E-01 -3.348756658280E-01 -3.347101814739E-01
     28 T   8 O    -1.748983965084E-01 -1.578983058734E-01  1.748616721641E-01
     29 T   8 O    -1.535774635732E-01 -1.803034702840E-01  4.940364942390E-01
     30 T   8 O    -1.768173244472E-01 -1.657547943511E-01 -1.566724418191E-01
     31 T   8 O    -1.727797948670E-01  1.656216749715E-01  1.707658894984E-01
     32 T   8 O    -1.746691660971E-01  1.741625163928E-01 -4.929208071025E-01
     33 T   8 O    -1.807324139210E-01  1.694756465261E-01 -1.673974422843E-01
     34 T   8 O    -1.750151893787E-01 -4.927882139586E-01  1.599232201989E-01
     35 T   8 O    -1.623636256365E-01 -4.976626449846E-01  4.960142712264E-01
     36 T   8 O    -1.659271691960E-01 -4.876506098635E-01 -1.679471069503E-01
     37 T   8 O     1.665495693737E-01 -1.773404035833E-01  1.673314580004E-01
     38 T   8 O     1.635791427238E-01 -1.711437678890E-01 -4.962568939542E-01
     39 T   8 O     1.719186906371E-01 -1.735441702635E-01 -1.600395830439E-01
     40 T   8 O     1.715833576983E-01  1.601801958906E-01  1.729293595473E-01
     41 T   8 O     1.727698013552E-01  1.604446353038E-01  4.941734570688E-01
     42 T   8 O     1.724905510277E-01  1.687371157697E-01 -1.715052638644E-01
     43 T   8 O     1.661232183319E-01 -4.849515233856E-01  1.676827239626E-01
     44 T   8 O     1.622943397756E-01 -4.940128017752E-01 -4.915431739561E-01
     45 T   8 O     1.681521184490E-01  4.981424348195E-01 -1.805130256332E-01
     46 T   8 O    -4.965065684860E-01 -1.536387351196E-01  1.629940370074E-01
     47 T   8 O     4.979077673288E-01 -1.528302008082E-01  4.862774975059E-01
     48 T   8 O    -4.986398899544E-01 -1.810514729537E-01 -1.515803430727E-01
     49 T   8 O    -4.927785114339E-01  1.477232531246E-01  1.727258507873E-01
     50 T   8 O    -4.997183483586E-01  1.661086441084E-01  4.997516481116E-01
     51 T   8 O    -4.944939845264E-01  1.736524498284E-01 -1.719277017938E-01
     52 T   8 O     4.976583999784E-01 -4.853714654922E-01  1.530491309500E-01
     53 T   8 O    -4.990835583071E-01  4.854992480828E-01 -4.875324032598E-01
     54 T   8 O    -4.983788835319E-01  4.975119189587E-01 -1.691151988325E-01

 T = ATOM BELONGING TO THE ASYMMETRIC UNIT
 *******************************************************************************
 * GEOMETRY EDITING - INPUT COORDINATES ARE GIVEN IN ANGSTROM         
 *******************************************************************************

 GCALCO - MAX INDICES DIRECT LATTICE VECTOR    15    14    15
 NO.OF VECTORS CREATED 6999 STARS 3500 RMAX   198.29949 BOHR

 GEOMETRY FOR WAVE FUNCTION - DIMENSIONALITY OF THE SYSTEM    3
 (NON PERIODIC DIRECTION: LATTICE PARAMETER FORMALLY SET TO 500)
 *******************************************************************************
 LATTICE PARAMETERS (ANGSTROMS AND DEGREES) - BOHR = 0.5291772083 ANGSTROM
 PRIMITIVE CELL - CENTRING CODE 1/0 VOLUME=   688.507226 - DENSITY  3.297 g/cm^3
         A              B              C           ALPHA      BETA       GAMMA 
     9.90018279     9.92589695     9.91415890    59.928854  60.005007  59.991553
 *******************************************************************************
 ATOMS IN THE ASYMMETRIC UNIT   54 - ATOMS IN THE UNIT CELL:   54
     ATOM                 X/A                 Y/B                 Z/C    
 *******************************************************************************
      1 T  20 CA   -2.588201326875E-03 -8.653484240972E-03  5.026442316963E-03
      2 T  20 CA   -9.131302668609E-04 -4.643045883391E-03  3.363339251202E-01
      3 T  20 CA   -3.477673154086E-03 -1.231672512985E-03 -3.321562130988E-01
      4 T  20 CA   -2.990401139628E-04  3.410784208769E-01 -4.940814775954E-03
      5 T  20 CA    2.263605768268E-05  3.342433511256E-01  3.351469976884E-01
      6 T  20 CA    7.744646516358E-04  3.386426140418E-01 -3.361567265695E-01
      7 T  20 CA   -4.768265678158E-03 -3.307731119502E-01  9.003186072327E-04
      8 T  12 MG   -3.125626823959E-04 -3.256915175381E-01  3.343736118002E-01
      9 T  12 MG    5.809568865878E-03 -3.433836051933E-01 -3.395394470087E-01
     10 T  20 CA    3.388981884485E-01 -8.848297830593E-04  6.636049222793E-04
     11 T  12 MG    3.459399141081E-01  1.563755011157E-03  3.295214150915E-01
     12 T  20 CA    3.374155439333E-01 -2.537557761479E-03 -3.346954866078E-01
     13 T  20 CA    3.383802973435E-01  3.323488092839E-01 -2.450937560932E-03
     14 T  20 CA    3.342777484784E-01  3.343444835431E-01  3.337216760438E-01
     15 T  12 MG    3.348519295168E-01  3.377793241055E-01 -3.367434733183E-01
     16 T  12 MG    3.299967117105E-01 -3.310939631842E-01  1.329801548039E-02
     17 T  20 CA    3.322888687606E-01 -3.311823504959E-01  3.339897148591E-01
     18 T  20 CA    3.335357074414E-01 -3.362064404573E-01 -3.321718309154E-01
     19 T  12 MG   -3.401814426314E-01 -2.129464507183E-03  3.893373014336E-03
     20 T  12 MG   -3.366774432923E-01 -3.769155495366E-03  3.244706261212E-01
     21 T  20 CA   -3.340673942408E-01 -3.654311647203E-03 -3.297725080796E-01
     22 T  20 CA   -3.360205308890E-01  3.334450660580E-01 -1.962136071853E-03
     23 T  20 CA   -3.369661897910E-01  3.334778069326E-01  3.353826736928E-01
     24 T  12 MG   -3.383881637422E-01  3.218894241491E-01 -3.279073255085E-01
     25 T  12 MG   -3.286327542509E-01 -3.305341200792E-01 -1.174212450627E-02
     26 T  20 CA   -3.324124308427E-01 -3.288859117614E-01  3.306614860319E-01
     27 T  20 CA   -3.311330248708E-01 -3.348756658280E-01 -3.347101814739E-01
     28 T   8 O    -1.748983965084E-01 -1.578983058734E-01  1.748616721641E-01
     29 T   8 O    -1.535774635732E-01 -1.803034702840E-01  4.940364942390E-01
     30 T   8 O    -1.768173244472E-01 -1.657547943511E-01 -1.566724418191E-01
     31 T   8 O    -1.727797948670E-01  1.656216749715E-01  1.707658894984E-01
     32 T   8 O    -1.746691660971E-01  1.741625163928E-01 -4.929208071025E-01
     33 T   8 O    -1.807324139210E-01  1.694756465261E-01 -1.673974422843E-01
     34 T   8 O    -1.750151893787E-01 -4.927882139586E-01  1.599232201989E-01
     35 T   8 O    -1.623636256365E-01 -4.976626449846E-01  4.960142712264E-01
     36 T   8 O    -1.659271691960E-01 -4.876506098635E-01 -1.679471069503E-01
     37 T   8 O     1.665495693737E-01 -1.773404035833E-01  1.673314580004E-01
     38 T   8 O     1.635791427238E-01 -1.711437678890E-01 -4.962568939542E-01
     39 T   8 O     1.719186906371E-01 -1.735441702635E-01 -1.600395830439E-01
     40 T   8 O     1.715833576983E-01  1.601801958906E-01  1.729293595473E-01
     41 T   8 O     1.727698013552E-01  1.604446353038E-01  4.941734570688E-01
     42 T   8 O     1.724905510277E-01  1.687371157697E-01 -1.715052638644E-01
     43 T   8 O     1.661232183319E-01 -4.849515233856E-01  1.676827239626E-01
     44 T   8 O     1.622943397756E-01 -4.940128017752E-01 -4.915431739561E-01
     45 T   8 O     1.681521184490E-01  4.981424348195E-01 -1.805130256332E-01
     46 T   8 O    -4.965065684860E-01 -1.536387351196E-01  1.629940370074E-01
     47 T   8 O     4.979077673288E-01 -1.528302008082E-01  4.862774975059E-01
     48 T   8 O    -4.986398899544E-01 -1.810514729537E-01 -1.515803430727E-01
     49 T   8 O    -4.927785114339E-01  1.477232531246E-01  1.727258507873E-01
     50 T   8 O    -4.997183483586E-01  1.661086441084E-01  4.997516481116E-01
     51 T   8 O    -4.944939845264E-01  1.736524498284E-01 -1.719277017938E-01
     52 T   8 O     4.976583999784E-01 -4.853714654922E-01  1.530491309500E-01
     53 T   8 O    -4.990835583071E-01  4.854992480828E-01 -4.875324032598E-01
     54 T   8 O    -4.983788835319E-01  4.975119189587E-01 -1.691151988325E-01

 T = ATOM BELONGING TO THE ASYMMETRIC UNIT

 ****    1 SYMMOPS - TRANSLATORS IN FRACTIONAL UNITS
 **** MATRICES AND TRANSLATORS IN THE CRYSTALLOGRAPHIC REFERENCE FRAME
   V INV                    ROTATION MATRICES                   TRANSLATORS
   1   1  1.00  0.00  0.00  0.00  1.00  0.00  0.00  0.00  1.00  0.00  0.00  0.00

 DIRECT LATTICE VECTORS CARTESIAN COMPONENTS (ANGSTROM)
          X                    Y                    Z
   0.350239265913E-02   0.699761725037E+01   0.700335346658E+01
   0.702386239189E+01   0.603157304178E-03   0.701347181737E+01
   0.701585814350E+01   0.700487450294E+01   0.379259557394E-02


 CARTESIAN COORDINATES - PRIMITIVE CELL
 *******************************************************************************
 *      ATOM          X(ANGSTROM)         Y(ANGSTROM)         Z(ANGSTROM)
 *******************************************************************************
    1    20 CA   -2.552514115400E-02  1.709313596200E-02 -7.879799331800E-02
    2    20 CA    2.327055793985E+00  2.349584399954E+00 -3.768326691400E-02
    3    20 CA   -2.339024151003E+00 -2.351048756675E+00 -3.425340898100E-02
    4    20 CA    2.361022790145E+00 -3.649663176700E-02  2.390030870202E+00
    5    20 CA    4.699023175993E+00  2.348022658631E+00  2.345635928596E+00
    6    20 CA    2.015392594400E-02 -2.349112020966E+00  2.379209372932E+00
    7    20 CA   -2.317005013982E+00 -2.725938752600E-02 -2.353258334029E+00
    8    12 MG    5.830433120900E-02  2.339861550519E+00 -2.285149122475E+00
    9    12 MG   -4.794019437453E+00 -2.337985190110E+00 -2.368912509118E+00
   10    20 CA   -3.722101109999E-04  2.376127745115E+00  2.367220590927E+00
   11    12 MG    2.324070720956E+00  4.729012212492E+00  2.434956589858E+00
   12    20 CA   -2.364817750114E+00  1.660341983600E-02  2.343973864817E+00
   13    20 CA    2.318362012942E+00  2.350887754459E+00  4.700706540457E+00
   14    20 CA    4.690904354361E+00  4.677027861082E+00  4.687246512581E+00
   15    12 MG    1.114383473200E-02 -1.547639790600E-02  4.712815059670E+00
   16    12 MG   -2.231105667930E+00  2.402141910267E+00 -1.098413078100E-02
   17    20 CA    1.820901042800E-02  4.664586602952E+00  5.665007241000E-03
   18    20 CA   -4.690770044995E+00  6.930445662000E-03 -2.336573544300E-02
   19    12 MG    1.116683811400E-02 -2.353188226257E+00 -2.397331058837E+00
   20    12 MG    2.248786678460E+00 -8.306614251700E-02 -2.383075419582E+00
   21    20 CA   -2.340474553649E+00 -4.647692998468E+00 -2.366472149032E+00
   22    20 CA    2.327129315067E+00 -2.364886460541E+00 -1.467041799300E-02
   23    20 CA    4.694119301151E+00 -8.445743219000E-03 -1.978416190900E-02
   24    12 MG   -4.082942757500E-02 -4.664666365748E+00 -1.135331348860E-01
   25    12 MG   -2.405158256046E+00 -2.382097702816E+00 -4.619767607699E+00
   26    20 CA    8.660453818000E-03 -1.005111763300E-02 -4.633379757857E+00
   27    20 CA   -4.701559505450E+00 -4.661946965788E+00 -4.668952082589E+00
   28     8 O     1.171361514110E-01  9.167948980001E-04 -2.331627430136E+00
   29     8 O     2.199125308657E+00  2.385878582294E+00 -2.338236888693E+00
   30     8 O    -2.264049776816E+00 -2.334870728943E+00 -2.401424996104E+00
   31     8 O     2.360767967898E+00 -1.275335183500E-02 -4.780737962200E-02
   32     8 O     4.780277473853E+00  2.329863186904E+00  1.371367749993E-04
   33     8 O     1.530391544500E-02 -2.437192112195E+00 -7.775517771400E-02
   34     8 O     4.683971443552E+00 -1.041412921800E-01  2.332228857697E+00
   35     8 O     7.007745558840E+00  2.338662202467E+00  2.387920203295E+00
   36     8 O     2.419797392814E+00 -2.337234201513E+00  2.430664437326E+00
   37     8 O    -7.105749702600E-02  2.337479039218E+00 -7.673179803500E-02
   38     8 O     2.332672816290E+00  4.673218243883E+00 -5.279894267900E-02
   39     8 O    -2.341163256066E+00  8.185932610400E-02 -1.374675458300E-02
   40     8 O     2.338932461564E+00  2.412119739064E+00  2.325734043647E+00
   41     8 O     4.594597020653E+00  4.670696765111E+00  2.337116115259E+00
   42     8 O    -1.746619092600E-02  5.751780457000E-03  2.390794854382E+00
   43     8 O     4.794649658070E+00  2.337373791206E+00  4.776333545055E+00
   44     8 O     7.121813834511E+00  4.697655118126E+00  4.687259952881E+00
   45     8 O     2.233019067582E+00 -8.750646771400E-02  4.670652036393E+00
   46     8 O     6.616914003400E-02  4.664914427449E+00  2.449219700639E+00
   47     8 O     2.339939509585E+00  6.890388644734E+00  2.416998036033E+00
   48     8 O    -2.333390856248E+00  2.446415671847E+00  2.240827778700E+00
   49     8 O     2.251184357687E+00  4.759353846686E+00  4.588959322130E+00
   50     8 O     4.674663111237E+00  7.001577282871E+00  4.670542889254E+00
   51     8 O     1.526102544400E-02  2.333110379143E+00  4.757491816492E+00
   52     8 O     4.690193996181E+00  4.554823361529E+00  7.095190857303E+00
   53     8 O     7.007234277837E+00  7.095285567790E+00  6.915073774519E+00
   54     8 O     2.309723886289E+00  2.325821911334E+00  7.001674421795E+00
 WARNING **** CRYSTA **** TESTGEOM  DIRECTIVE - GEOMETRY EDITING COMPLETE
 TTTTTTTTTTTTTTTTTTTTTTTTTTTTTT END         TELAPSE        0.01 TCPU        0.01
 EEEEEEEEEE TERMINATION  DATE 10 03 2023 TIME 10:32:46.9
Fri 10 Mar 2023 10:32:46 GMT
Contents of temporary directory:
total 8
-rw-r--r--  1 brunocamino  admin  4027 10 Mar 10:32 fort.34
SCF abnormal end - no wf written in fort.9
geometry input file fort.34 saved as /Users/brunocamino/Desktop/Imperial/cmsg_icl/solid-solutions/./data/crystal/testgeom_opt/CaMgO_testgeom_3738.gui
temporary directory /Users/brunocamino/crystal/tmp removed
