date Fri 10 Mar 2023 10:32:51 GMT
hostname MacBook-Pro-8
system Darwin MacBook-Pro-8 21.6.0 Darwin Kernel Version 21.6.0: Mon Aug 22 20:20:05 PDT 2022; root:xnu-8020.140.49~2/RELEASE_ARM64_T8101 arm64
user brunocamino
output data in /Users/brunocamino/Desktop/Imperial/cmsg_icl/solid-solutions/./data/crystal/testgeom_opt/CaMgO_testgeom_3799.out
crystal executable in /Users/brunocamino/crystal
input data in /Users/brunocamino/Desktop/Imperial/cmsg_icl/solid-solutions/./data/crystal/testgeom_opt/CaMgO_testgeom_3799.d12
temporary directory /Users/brunocamino/crystal/tmp
external geometry input from /Users/brunocamino/Desktop/Imperial/cmsg_icl/solid-solutions/./data/crystal/testgeom_opt/CaMgO_testgeom_3799.gui
external geometry input saved in /Users/brunocamino/Desktop/Imperial/cmsg_icl/solid-solutions/./data/crystal/testgeom_opt/CaMgO_testgeom_3799_inp.gui
Bulk 
EXTERNAL
EXTPRT
TESTGEOM
END

         
 *******************************************************************************
 *                                                                             *
 *                               CRYSTAL17                                     *
 *                      public : 1.0.1 - Feb 1st, 2017                         *
 *                       HTTP://WWW.CRYSTAL.UNITO.IT                           *
 *                                                                             *
 *                              MAIN AUTHORS                                   *
 *                                                                             *
 *  R. DOVESI(1,11), V.R. SAUNDERS(2), C. ROETTI(1,11), R. ORLANDO(1,11),      *
 *  C.M. ZICOVICH-WILSON(1,3), F. PASCALE(4), B. CIVALLERI(1,11),              *
 *  K. DOLL(5), N.M. HARRISON(2,6), I.J. BUSH(7), Ph. D'ARCO(8),               *
 *  M. LLUNELL(9), M. CAUSA'(10), Y. NOEL(8), L. MASCHIO(1,11), A. ERBA(1,11)  *
 *  M. RE'RAT(14), S. CASASSA(1,11)                                            *
 *                                                                             *
 *        CONTRIBUTIONS TO THE CODE HAVE ALSO BEEN GIVEN BY                    *
 *                                                                             *
 *  M. FERRABONE(1,11), M. DE LA PIERRE(1,11), M. FERRERO(1,11),               *
 *  J. BAIMA(1,11), E. ALBANESE(1,11), M.F. PEINTINGER(12), R. BAST(13),       *
 *  B. KIRTMAN(15), V. LACIVITA(1,11), R. DEMICHELIS(1,16)                     *
 *  G. BRANDEBURG(17), S. SALUSTRO(1,11), G. SANSONE(1,11)                     *
 *  M.T. RUGGIERO(18)                                                          *
 *                                                                             *
 * (1) THEORETICAL CHEMISTRY GROUP - UNIVERSITA' DI TORINO - TORINO (ITALY)    *

 * (2) COMPUTATIONAL SCIENCE & ENGINEERING DEPARTMENT - STFC DARESBURY (UK)    *
 * (3) UNIVERSIDAD AUTONOMA DEL ESTADO DE MORELOS - CUERNAVACA (MEXICO)        *
 * (4) UNIVERSITE' DE LORRAINE - NANCY (FRANCE)                                *
 * (5) UNIVERSITAET STUTTGART- STUTTGART (GERMANY)                             *
 * (6) IMPERIAL COLLEGE - LONDON (UK)                                          *
 * (7) OXFORD E-RESEARCH CENTRE - OXFORD (UK)                                  *
 * (8) UPMC - SORBONNE UNIVERSITES - PARIS (FRANCE)                            *
 * (9) UNIVERSIDAD DE BARCELONA - BARCELONA (SPAIN)                            *
 *(10) UNIVERSITA' DI NAPOLI "FEDERICO II" - NAPOLI (ITALY)                    *
 *(11) NIS - NANOSTRUCTURED INTERFACES AND SURFACES - TORINO (ITALY)           *
 *(12) MPI FUER CHEMISCHE ENERGIEKONVERSION - MUELHEIM AN DER RUHR (GERMANY)   *
 *(13) UNIVERSITY OF TROMSO - TROMSO (NORWAY)                                  *
 *(14) UNIVERSITE' DE PAU ET DES PAYS DE L'ADOUR - PAU (FRANCE)                *
 *(15) UNIVERSITY OF CALIFORNIA SANTA BARBARA - SANTA BARBARA (USA)            *
 *(16) CURTIN UNIVERSITY - PERTH (AUSTRALIA)                                   *
 *(17) UNIVERSITY COLLEGE LONDON - LONDON (UK)                                 *
 *(18) CAMBRIDGE UNIVERSITY - CAMBRIDGE (UK)                                   *
 *                                                                             *
 *******************************************************************************
 EEEEEEEEEE STARTING  DATE 10 03 2023 TIME 10:32:51.7
 Bulk                                                                            

 GEOMETRY INPUT FROM EXTERNAL FILE (FORTRAN UNIT 34)
 3D - CRYSTAL 

 *******************************************************************************
 LATTICE PARAMETERS  (ANGSTROMS AND DEGREES) - PRIMITIVE CELL
       A          B          C        ALPHA      BETA     GAMMA        VOLUME
    9.92449    9.93820    9.91756    60.18508  60.04977  59.99568    692.881279
 INFORMATION **** CHKGRP **** SPGR WITH NO INVERSION

 NUMBER OF IRREDUCIBLE ATOMS IN THE CELL:   54

 CARTESIAN COORDINATES (ANGSTROM) - IRREDUCIBLE ATOMS AND SYMMETRY RELATED

 AT.IRR.  AT  AT.N.          X                   Y                   Z
     1     1    20    2.649809131600E-02 -7.908895010000E-03 -7.072413298200E-02
     2     2    20    2.331091244353E+00  2.369121638248E+00 -1.922204143900E-02
     3     3    20   -2.367380352062E+00 -2.331690822322E+00  3.460688972000E-03
     4     4    20    2.334078364294E+00 -3.412473568900E-02  2.362667226861E+00
     5     5    20    4.670243177737E+00  2.352492060411E+00  2.355326025014E+00
     6     6    20    7.627048806000E-03 -2.340751212325E+00  2.405778322811E+00
     7     7    20   -2.335301266626E+00 -1.071587340600E-02 -2.347326031348E+00
     8     8    12   -1.147176087200E-02  2.447161671315E+00 -2.354581023110E+00
     9     9    12   -4.752769158297E+00 -2.276482897495E+00 -2.323008105409E+00
    10    10    20    1.507278933500E-02  2.355166002687E+00  2.388321908960E+00
    11    11    12    2.308362723137E+00  4.723738523304E+00  2.381175223431E+00
    12    12    20   -2.355219866061E+00 -2.391611688700E-02  2.363977223659E+00
    13    13    20    2.324069691719E+00  2.373038451390E+00  4.706272545777E+00
    14    14    12    4.661906900954E+00  4.693666959163E+00  4.701427998077E+00
    15    15    12    1.720728707100E-02 -1.086972291690E-01  4.761664357580E+00
    16    16    20   -2.348546610392E+00  2.373599703201E+00 -4.404261549400E-02
    17    17    20    2.339689996900E-02  4.707594084544E+00 -4.808345325400E-02
    18    18    12   -4.664286451171E+00 -1.196709507710E-01 -3.590691975300E-02
    19    19    12    1.082665741910E-01 -2.338303232195E+00 -2.323311461588E+00
    20    20    20    2.337180507024E+00 -5.070380342800E-02 -2.327909634981E+00
    21    21    20   -2.322125628952E+00 -4.678485870407E+00 -2.327914782559E+00
    22    22    12    2.393837713015E+00 -2.306231602899E+00 -4.565747218000E-02
    23    23    12    4.640561907339E+00 -6.963929045000E-02 -5.648486046400E-02
    24    24    20    2.926424386100E-02 -4.701682858859E+00 -2.515626045800E-02
    25    25    20   -2.346829298435E+00 -2.323239551014E+00 -4.717983776169E+00
    26    26    20    5.681243574000E-03 -8.720378751000E-03 -4.684721697488E+00
    27    27    20   -4.696959617112E+00 -4.655660806491E+00 -4.696410993416E+00
    28    28     8    6.743796062000E-03 -6.303947804100E-02 -2.353874133835E+00
    29    29     8    2.218829282517E+00  2.438076862618E+00 -2.355912492646E+00
    30    30     8   -2.358667116499E+00 -2.347752827057E+00 -2.346780071585E+00
    31    31     8    2.423730144489E+00 -9.163803246900E-02 -4.091075266000E-03
    32    32     8    4.661046073972E+00  2.242797113732E+00 -6.963287037000E-03
    33    33     8    8.367685638700E-02 -2.329012090361E+00 -5.091384961700E-02
    34    34     8    4.672338417147E+00 -1.338291589600E-02  2.338441780281E+00
    35    35     8    7.012298510305E+00  2.328515870342E+00  2.441847436479E+00
    36    36     8    2.344728798269E+00 -2.346325669946E+00  2.355662059278E+00
    37    37     8   -6.857737878000E-03  2.350313782306E+00 -8.629322349500E-02
    38    38     8    2.337671252527E+00  4.771278453302E+00 -2.258894897500E-02
    39    39     8   -2.426458483665E+00  1.023972170500E-02 -3.263254770800E-02
    40    40     8    2.344252590982E+00  2.426325669454E+00  2.344888167512E+00
    41    41     8    4.591268330357E+00  4.678941587656E+00  2.403545721857E+00
    42    42     8    3.537222558000E-03  3.159079576000E-03  2.425329011211E+00
    43    43     8    4.794496090803E+00  2.455560432262E+00  4.691223965027E+00
    44    44     8    7.046290928877E+00  4.647740234241E+00  4.694851575945E+00
    45    45     8    2.224045410284E+00 -1.312838650570E-01  4.794838575963E+00
    46    46     8    1.219353029300E-01  4.670633932593E+00  2.383862854902E+00
    47    47     8    2.336165298574E+00  6.887146769199E+00  2.257041365698E+00
    48    48     8   -2.338189563150E+00  2.336912005146E+00  2.335942985529E+00
    49    49     8    2.311417414286E+00  4.680639724974E+00  4.697616654162E+00
    50    50     8    4.780597196179E+00  6.891911161190E+00  4.773276230134E+00
    51    51     8   -2.024016857000E-03  2.392835325972E+00  4.681981443505E+00
    52    52     8    4.559403832743E+00  4.766465098277E+00  6.949456580896E+00
    53    53     8    7.002695381648E+00  6.995426304469E+00  6.921091011241E+00
    54    54     8    2.352771652380E+00  2.369361488171E+00  7.035537707085E+00

 SYMMETRY CHANGED DURING OLD RUN :  INFORMATION ON SPACE GROUP LOST 
 NUMBER OF SYMMETRY OPERATORS         :    1
 *******************************************************************************
 LATTICE PARAMETERS (ANGSTROMS AND DEGREES) - BOHR = 0.5291772083 ANGSTROM
 PRIMITIVE CELL - CENTRING CODE 1/0 VOLUME=   692.881279 - DENSITY  3.276 g/cm^3
         A              B              C           ALPHA      BETA       GAMMA 
     9.92449298     9.93819935     9.91755736    60.185078  60.049766  59.995677
 *******************************************************************************
 ATOMS IN THE ASYMMETRIC UNIT   54 - ATOMS IN THE UNIT CELL:   54
     ATOM                 X/A                 Y/B                 Z/C    
 *******************************************************************************
      1 T  20 CA   -7.488882659579E-03 -2.567607258677E-03  6.350977928184E-03
      2 T  20 CA    1.443654713568E-03 -3.806673749196E-03  3.362954486063E-01
      3 T  20 CA    2.688410087349E-03 -2.554953066698E-03 -3.351063432492E-01
      4 T  20 CA   -4.833175524972E-04  3.361533650205E-01 -3.482717271223E-03
      5 T  20 CA    2.692334691657E-03  3.323070215039E-01  3.335756011022E-01
      6 T  20 CA    3.899572839240E-03  3.375427542581E-01 -3.366989505441E-01
      7 T  20 CA   -1.534047362215E-03 -3.319652622818E-01 -8.822675307771E-04
      8 T  12 MG    7.607501823620E-03 -3.417485405216E-01  3.403562124732E-01
      9 T  12 MG    1.090906931571E-02 -3.412921311000E-01 -3.363585603462E-01
     10 T  20 CA    3.369387137883E-01  3.067605919810E-03 -1.012953058276E-03
     11 T  12 MG    3.418967501009E-01 -2.534578489866E-03  3.316866809991E-01
     12 T  20 CA    3.344754485433E-01  1.701637151894E-03 -3.377231001356E-01
     13 T  20 CA    3.387652748585E-01  3.305682334925E-01  5.852581874926E-04
     14 T  12 MG    3.372946868104E-01  3.317082022482E-01  3.328934931314E-01
     15 T  12 MG    3.301419001880E-01  3.466691751455E-01 -3.445555372622E-01
     16 T  20 CA    3.334445094140E-01 -3.390166960160E-01  4.192593668461E-03
     17 T  20 CA    3.305538734307E-01 -3.363417780203E-01  3.398297903679E-01
     18 T  12 MG    3.212657670434E-01 -3.260794705992E-01 -3.390474266812E-01
     19 T  12 MG   -3.398950716121E-01  9.124897537246E-03  6.404535176522E-03
     20 T  20 CA   -3.359416777870E-01  4.875948516727E-03  3.285682082025E-01
     21 T  20 CA   -3.338964910283E-01  2.115922189327E-03 -3.332329515883E-01
     22 T  12 MG   -3.382567776269E-01  3.310906662614E-01  1.020039573312E-02
     23 T  12 MG   -3.396528371753E-01  3.312931629499E-01  3.304511947689E-01
     24 T  20 CA   -3.391008122664E-01  3.344759556417E-01 -3.304491418798E-01
     25 T  20 CA   -3.344269877036E-01 -3.365585515149E-01  2.161943674354E-03
     26 T  20 CA   -3.346648252046E-01 -3.312371069366E-01  3.323782282372E-01
     27 T  20 CA   -3.317298999768E-01 -3.365490124545E-01 -3.330503464715E-01
     28 T   8 O    -1.726142505238E-01 -1.619865797863E-01  1.631126982956E-01
     29 T   8 O    -1.520559505038E-01 -1.824278812990E-01  4.990755348096E-01
     30 T   8 O    -1.664579766944E-01 -1.674826103207E-01 -1.687705038690E-01
     31 T   8 O    -1.795287857147E-01  1.787622092362E-01  1.668582925057E-01
     32 T   8 O    -1.727118320554E-01  1.719048932108E-01  4.928298070326E-01
     33 T   8 O    -1.756440166868E-01  1.678826117748E-01 -1.560200511451E-01
     34 T   8 O    -1.673432986120E-01  4.994156468169E-01  1.666924586067E-01
     35 T   8 O    -1.597392064551E-01 -4.931274814276E-01  4.929795285166E-01
     36 T   8 O    -1.665980917540E-01 -4.992432564980E-01 -1.666396536577E-01
     37 T   8 O     1.619173621869E-01 -1.736594336359E-01  1.727616257790E-01
     38 T   8 O     1.720057248909E-01 -1.743128012507E-01 -4.921842450385E-01
     39 T   8 O     1.713042021108E-01 -1.757755677997E-01 -1.702339603818E-01
     40 T   8 O     1.729524939280E-01  1.607376502440E-01  1.734625651929E-01
     41 T   8 O     1.776267274020E-01  1.647501890871E-01  4.899404875979E-01
     42 T   8 O     1.727011769340E-01  1.720424178667E-01 -1.717094044954E-01
     43 T   8 O     1.675461420419E-01  4.994988730063E-01  1.839402488702E-01
     44 T   8 O     1.636516781473E-01 -4.957557867872E-01 -4.996311439942E-01
     45 T   8 O     1.736450824359E-01 -4.922734770568E-01 -1.909215729539E-01
     46 T   8 O     4.940965306440E-01 -1.542156275653E-01  1.715820583462E-01
     47 T   8 O     4.853233046630E-01 -1.631259586823E-01  4.963195930806E-01
     48 T   8 O     4.995894290341E-01 -1.668725988759E-01 -1.666440338263E-01
     49 T   8 O    -4.964206139585E-01  1.650385223655E-01  1.643840275757E-01
     50 T   8 O     4.906862893430E-01  1.890108069904E-01  4.925802174601E-01
     51 T   8 O    -4.958065737043E-01  1.618497033772E-01 -1.623940458429E-01
     52 T   8 O    -4.901100695415E-01  4.786772811621E-01  1.711508474334E-01
     53 T   8 O     4.926942654613E-01  4.921714036588E-01 -4.938585413094E-01
     54 T   8 O    -4.976555827119E-01  4.980746663554E-01 -1.629931008231E-01

 T = ATOM BELONGING TO THE ASYMMETRIC UNIT
 *******************************************************************************
 * GEOMETRY EDITING - INPUT COORDINATES ARE GIVEN IN ANGSTROM         
 *******************************************************************************

 GCALCO - MAX INDICES DIRECT LATTICE VECTOR    15    14    15
 NO.OF VECTORS CREATED 6999 STARS 3500 RMAX   198.78003 BOHR

 GEOMETRY FOR WAVE FUNCTION - DIMENSIONALITY OF THE SYSTEM    3
 (NON PERIODIC DIRECTION: LATTICE PARAMETER FORMALLY SET TO 500)
 *******************************************************************************
 LATTICE PARAMETERS (ANGSTROMS AND DEGREES) - BOHR = 0.5291772083 ANGSTROM
 PRIMITIVE CELL - CENTRING CODE 1/0 VOLUME=   692.881279 - DENSITY  3.276 g/cm^3
         A              B              C           ALPHA      BETA       GAMMA 
     9.92449298     9.93819935     9.91755736    60.185078  60.049766  59.995677
 *******************************************************************************
 ATOMS IN THE ASYMMETRIC UNIT   54 - ATOMS IN THE UNIT CELL:   54
     ATOM                 X/A                 Y/B                 Z/C    
 *******************************************************************************
      1 T  20 CA   -7.488882659579E-03 -2.567607258677E-03  6.350977928184E-03
      2 T  20 CA    1.443654713568E-03 -3.806673749196E-03  3.362954486063E-01
      3 T  20 CA    2.688410087349E-03 -2.554953066698E-03 -3.351063432492E-01
      4 T  20 CA   -4.833175524972E-04  3.361533650205E-01 -3.482717271223E-03
      5 T  20 CA    2.692334691657E-03  3.323070215039E-01  3.335756011022E-01
      6 T  20 CA    3.899572839240E-03  3.375427542581E-01 -3.366989505441E-01
      7 T  20 CA   -1.534047362215E-03 -3.319652622818E-01 -8.822675307771E-04
      8 T  12 MG    7.607501823620E-03 -3.417485405216E-01  3.403562124732E-01
      9 T  12 MG    1.090906931571E-02 -3.412921311000E-01 -3.363585603462E-01
     10 T  20 CA    3.369387137883E-01  3.067605919810E-03 -1.012953058276E-03
     11 T  12 MG    3.418967501009E-01 -2.534578489866E-03  3.316866809991E-01
     12 T  20 CA    3.344754485433E-01  1.701637151894E-03 -3.377231001356E-01
     13 T  20 CA    3.387652748585E-01  3.305682334925E-01  5.852581874926E-04
     14 T  12 MG    3.372946868104E-01  3.317082022482E-01  3.328934931314E-01
     15 T  12 MG    3.301419001880E-01  3.466691751455E-01 -3.445555372622E-01
     16 T  20 CA    3.334445094140E-01 -3.390166960160E-01  4.192593668461E-03
     17 T  20 CA    3.305538734307E-01 -3.363417780203E-01  3.398297903679E-01
     18 T  12 MG    3.212657670434E-01 -3.260794705992E-01 -3.390474266812E-01
     19 T  12 MG   -3.398950716121E-01  9.124897537246E-03  6.404535176522E-03
     20 T  20 CA   -3.359416777870E-01  4.875948516727E-03  3.285682082025E-01
     21 T  20 CA   -3.338964910283E-01  2.115922189327E-03 -3.332329515883E-01
     22 T  12 MG   -3.382567776269E-01  3.310906662614E-01  1.020039573312E-02
     23 T  12 MG   -3.396528371753E-01  3.312931629499E-01  3.304511947689E-01
     24 T  20 CA   -3.391008122664E-01  3.344759556417E-01 -3.304491418798E-01
     25 T  20 CA   -3.344269877036E-01 -3.365585515149E-01  2.161943674354E-03
     26 T  20 CA   -3.346648252046E-01 -3.312371069366E-01  3.323782282372E-01
     27 T  20 CA   -3.317298999768E-01 -3.365490124545E-01 -3.330503464715E-01
     28 T   8 O    -1.726142505238E-01 -1.619865797863E-01  1.631126982956E-01
     29 T   8 O    -1.520559505038E-01 -1.824278812990E-01  4.990755348096E-01
     30 T   8 O    -1.664579766944E-01 -1.674826103207E-01 -1.687705038690E-01
     31 T   8 O    -1.795287857147E-01  1.787622092362E-01  1.668582925057E-01
     32 T   8 O    -1.727118320554E-01  1.719048932108E-01  4.928298070326E-01
     33 T   8 O    -1.756440166868E-01  1.678826117748E-01 -1.560200511451E-01
     34 T   8 O    -1.673432986120E-01  4.994156468169E-01  1.666924586067E-01
     35 T   8 O    -1.597392064551E-01 -4.931274814276E-01  4.929795285166E-01
     36 T   8 O    -1.665980917540E-01 -4.992432564980E-01 -1.666396536577E-01
     37 T   8 O     1.619173621869E-01 -1.736594336359E-01  1.727616257790E-01
     38 T   8 O     1.720057248909E-01 -1.743128012507E-01 -4.921842450385E-01
     39 T   8 O     1.713042021108E-01 -1.757755677997E-01 -1.702339603818E-01
     40 T   8 O     1.729524939280E-01  1.607376502440E-01  1.734625651929E-01
     41 T   8 O     1.776267274020E-01  1.647501890871E-01  4.899404875979E-01
     42 T   8 O     1.727011769340E-01  1.720424178667E-01 -1.717094044954E-01
     43 T   8 O     1.675461420419E-01  4.994988730063E-01  1.839402488702E-01
     44 T   8 O     1.636516781473E-01 -4.957557867872E-01 -4.996311439942E-01
     45 T   8 O     1.736450824359E-01 -4.922734770568E-01 -1.909215729539E-01
     46 T   8 O     4.940965306440E-01 -1.542156275653E-01  1.715820583462E-01
     47 T   8 O     4.853233046630E-01 -1.631259586823E-01  4.963195930806E-01
     48 T   8 O     4.995894290341E-01 -1.668725988759E-01 -1.666440338263E-01
     49 T   8 O    -4.964206139585E-01  1.650385223655E-01  1.643840275757E-01
     50 T   8 O     4.906862893430E-01  1.890108069904E-01  4.925802174601E-01
     51 T   8 O    -4.958065737043E-01  1.618497033772E-01 -1.623940458429E-01
     52 T   8 O    -4.901100695415E-01  4.786772811621E-01  1.711508474334E-01
     53 T   8 O     4.926942654613E-01  4.921714036588E-01 -4.938585413094E-01
     54 T   8 O    -4.976555827119E-01  4.980746663554E-01 -1.629931008231E-01

 T = ATOM BELONGING TO THE ASYMMETRIC UNIT

 ****    1 SYMMOPS - TRANSLATORS IN FRACTIONAL UNITS
 **** MATRICES AND TRANSLATORS IN THE CRYSTALLOGRAPHIC REFERENCE FRAME
   V INV                    ROTATION MATRICES                   TRANSLATORS
   1   1  1.00  0.00  0.00  0.00  1.00  0.00  0.00  0.00  1.00  0.00  0.00  0.00

 DIRECT LATTICE VECTORS CARTESIAN COMPONENTS (ANGSTROM)
          X                    Y                    Z
   0.193494555999E-02   0.701115297976E+01   0.702419326246E+01
   0.701613364023E+01  -0.187615752180E-01   0.703855972766E+01
   0.701108680620E+01   0.701445275213E+01  -0.763926664656E-02


 CARTESIAN COORDINATES - PRIMITIVE CELL
 *******************************************************************************
 *      ATOM          X(ANGSTROM)         Y(ANGSTROM)         Z(ANGSTROM)
 *******************************************************************************
    1    20 CA    2.649809131600E-02 -7.908895010000E-03 -7.072413298200E-02
    2    20 CA    2.331091244353E+00  2.369121638248E+00 -1.922204143900E-02
    3    20 CA   -2.367380352062E+00 -2.331690822322E+00  3.460688972000E-03
    4    20 CA    2.334078364294E+00 -3.412473568900E-02  2.362667226861E+00
    5    20 CA    4.670243177737E+00  2.352492060411E+00  2.355326025014E+00
    6    20 CA    7.627048805999E-03 -2.340751212325E+00  2.405778322811E+00
    7    20 CA   -2.335301266626E+00 -1.071587340600E-02 -2.347326031348E+00
    8    12 MG   -1.147176087200E-02  2.447161671315E+00 -2.354581023110E+00
    9    12 MG   -4.752769158297E+00 -2.276482897495E+00 -2.323008105409E+00
   10    20 CA    1.507278933500E-02  2.355166002687E+00  2.388321908960E+00
   11    12 MG    2.308362723137E+00  4.723738523304E+00  2.381175223431E+00
   12    20 CA   -2.355219866061E+00 -2.391611688700E-02  2.363977223659E+00
   13    20 CA    2.324069691719E+00  2.373038451390E+00  4.706272545777E+00
   14    12 MG    4.661906900954E+00  4.693666959163E+00  4.701427998077E+00
   15    12 MG    1.720728707100E-02 -1.086972291690E-01  4.761664357580E+00
   16    20 CA   -2.348546610392E+00  2.373599703201E+00 -4.404261549400E-02
   17    20 CA    2.339689996900E-02  4.707594084544E+00 -4.808345325400E-02
   18    12 MG   -4.664286451171E+00 -1.196709507710E-01 -3.590691975300E-02
   19    12 MG    1.082665741910E-01 -2.338303232195E+00 -2.323311461588E+00
   20    20 CA    2.337180507024E+00 -5.070380342800E-02 -2.327909634981E+00
   21    20 CA   -2.322125628952E+00 -4.678485870407E+00 -2.327914782559E+00
   22    12 MG    2.393837713015E+00 -2.306231602899E+00 -4.565747218000E-02
   23    12 MG    4.640561907339E+00 -6.963929045000E-02 -5.648486046400E-02
   24    20 CA    2.926424386100E-02 -4.701682858859E+00 -2.515626045800E-02
   25    20 CA   -2.346829298435E+00 -2.323239551014E+00 -4.717983776169E+00
   26    20 CA    5.681243574000E-03 -8.720378751000E-03 -4.684721697488E+00
   27    20 CA   -4.696959617112E+00 -4.655660806491E+00 -4.696410993416E+00
   28     8 O     6.743796062000E-03 -6.303947804100E-02 -2.353874133835E+00
   29     8 O     2.218829282517E+00  2.438076862618E+00 -2.355912492646E+00
   30     8 O    -2.358667116499E+00 -2.347752827057E+00 -2.346780071585E+00
   31     8 O     2.423730144489E+00 -9.163803246900E-02 -4.091075266000E-03
   32     8 O     4.661046073972E+00  2.242797113732E+00 -6.963287037000E-03
   33     8 O     8.367685638700E-02 -2.329012090361E+00 -5.091384961700E-02
   34     8 O     4.672338417147E+00 -1.338291589600E-02  2.338441780281E+00
   35     8 O     7.012298510305E+00  2.328515870342E+00  2.441847436479E+00
   36     8 O     2.344728798269E+00 -2.346325669946E+00  2.355662059278E+00
   37     8 O    -6.857737878000E-03  2.350313782306E+00 -8.629322349500E-02
   38     8 O     2.337671252527E+00  4.771278453302E+00 -2.258894897500E-02
   39     8 O    -2.426458483665E+00  1.023972170500E-02 -3.263254770800E-02
   40     8 O     2.344252590982E+00  2.426325669454E+00  2.344888167512E+00
   41     8 O     4.591268330357E+00  4.678941587656E+00  2.403545721857E+00
   42     8 O     3.537222558000E-03  3.159079576000E-03  2.425329011211E+00
   43     8 O     4.794496090803E+00  2.455560432262E+00  4.691223965027E+00
   44     8 O     7.046290928877E+00  4.647740234241E+00  4.694851575945E+00
   45     8 O     2.224045410284E+00 -1.312838650570E-01  4.794838575963E+00
   46     8 O     1.219353029300E-01  4.670633932593E+00  2.383862854902E+00
   47     8 O     2.336165298574E+00  6.887146769199E+00  2.257041365698E+00
   48     8 O    -2.338189563150E+00  2.336912005146E+00  2.335942985529E+00
   49     8 O     2.311417414286E+00  4.680639724974E+00  4.697616654162E+00
   50     8 O     4.780597196179E+00  6.891911161190E+00  4.773276230134E+00
   51     8 O    -2.024016857000E-03  2.392835325972E+00  4.681981443505E+00
   52     8 O     4.559403832743E+00  4.766465098277E+00  6.949456580896E+00
   53     8 O     7.002695381648E+00  6.995426304469E+00  6.921091011241E+00
   54     8 O     2.352771652380E+00  2.369361488171E+00  7.035537707085E+00
 WARNING **** CRYSTA **** TESTGEOM  DIRECTIVE - GEOMETRY EDITING COMPLETE
 TTTTTTTTTTTTTTTTTTTTTTTTTTTTTT END         TELAPSE        0.01 TCPU        0.01
 EEEEEEEEEE TERMINATION  DATE 10 03 2023 TIME 10:32:51.7
Fri 10 Mar 2023 10:32:51 GMT
Contents of temporary directory:
total 8
-rw-r--r--  1 brunocamino  admin  4027 10 Mar 10:32 fort.34
SCF abnormal end - no wf written in fort.9
geometry input file fort.34 saved as /Users/brunocamino/Desktop/Imperial/cmsg_icl/solid-solutions/./data/crystal/testgeom_opt/CaMgO_testgeom_3799.gui
temporary directory /Users/brunocamino/crystal/tmp removed
