date Fri 10 Mar 2023 10:29:27 GMT
hostname MacBook-Pro-8
system Darwin MacBook-Pro-8 21.6.0 Darwin Kernel Version 21.6.0: Mon Aug 22 20:20:05 PDT 2022; root:xnu-8020.140.49~2/RELEASE_ARM64_T8101 arm64
user brunocamino
output data in /Users/brunocamino/Desktop/Imperial/cmsg_icl/solid-solutions/./data/crystal/testgeom_opt/CaMgO_testgeom_1243.out
crystal executable in /Users/brunocamino/crystal
input data in /Users/brunocamino/Desktop/Imperial/cmsg_icl/solid-solutions/./data/crystal/testgeom_opt/CaMgO_testgeom_1243.d12
temporary directory /Users/brunocamino/crystal/tmp
external geometry input from /Users/brunocamino/Desktop/Imperial/cmsg_icl/solid-solutions/./data/crystal/testgeom_opt/CaMgO_testgeom_1243.gui
external geometry input saved in /Users/brunocamino/Desktop/Imperial/cmsg_icl/solid-solutions/./data/crystal/testgeom_opt/CaMgO_testgeom_1243_inp.gui
Bulk 
EXTERNAL
EXTPRT
TESTGEOM
END

         
 *******************************************************************************
 *                                                                             *
 *                               CRYSTAL17                                     *
 *                      public : 1.0.1 - Feb 1st, 2017                         *
 *                       HTTP://WWW.CRYSTAL.UNITO.IT                           *
 *                                                                             *
 *                              MAIN AUTHORS                                   *
 *                                                                             *
 *  R. DOVESI(1,11), V.R. SAUNDERS(2), C. ROETTI(1,11), R. ORLANDO(1,11),      *
 *  C.M. ZICOVICH-WILSON(1,3), F. PASCALE(4), B. CIVALLERI(1,11),              *
 *  K. DOLL(5), N.M. HARRISON(2,6), I.J. BUSH(7), Ph. D'ARCO(8),               *
 *  M. LLUNELL(9), M. CAUSA'(10), Y. NOEL(8), L. MASCHIO(1,11), A. ERBA(1,11)  *
 *  M. RE'RAT(14), S. CASASSA(1,11)                                            *
 *                                                                             *
 *        CONTRIBUTIONS TO THE CODE HAVE ALSO BEEN GIVEN BY                    *
 *                                                                             *
 *  M. FERRABONE(1,11), M. DE LA PIERRE(1,11), M. FERRERO(1,11),               *
 *  J. BAIMA(1,11), E. ALBANESE(1,11), M.F. PEINTINGER(12), R. BAST(13),       *
 *  B. KIRTMAN(15), V. LACIVITA(1,11), R. DEMICHELIS(1,16)                     *
 *  G. BRANDEBURG(17), S. SALUSTRO(1,11), G. SANSONE(1,11)                     *
 *  M.T. RUGGIERO(18)                                                          *
 *                                                                             *
 * (1) THEORETICAL CHEMISTRY GROUP - UNIVERSITA' DI TORINO - TORINO (ITALY)    *

 * (2) COMPUTATIONAL SCIENCE & ENGINEERING DEPARTMENT - STFC DARESBURY (UK)    *
 * (3) UNIVERSIDAD AUTONOMA DEL ESTADO DE MORELOS - CUERNAVACA (MEXICO)        *
 * (4) UNIVERSITE' DE LORRAINE - NANCY (FRANCE)                                *
 * (5) UNIVERSITAET STUTTGART- STUTTGART (GERMANY)                             *
 * (6) IMPERIAL COLLEGE - LONDON (UK)                                          *
 * (7) OXFORD E-RESEARCH CENTRE - OXFORD (UK)                                  *
 * (8) UPMC - SORBONNE UNIVERSITES - PARIS (FRANCE)                            *
 * (9) UNIVERSIDAD DE BARCELONA - BARCELONA (SPAIN)                            *
 *(10) UNIVERSITA' DI NAPOLI "FEDERICO II" - NAPOLI (ITALY)                    *
 *(11) NIS - NANOSTRUCTURED INTERFACES AND SURFACES - TORINO (ITALY)           *
 *(12) MPI FUER CHEMISCHE ENERGIEKONVERSION - MUELHEIM AN DER RUHR (GERMANY)   *
 *(13) UNIVERSITY OF TROMSO - TROMSO (NORWAY)                                  *
 *(14) UNIVERSITE' DE PAU ET DES PAYS DE L'ADOUR - PAU (FRANCE)                *
 *(15) UNIVERSITY OF CALIFORNIA SANTA BARBARA - SANTA BARBARA (USA)            *
 *(16) CURTIN UNIVERSITY - PERTH (AUSTRALIA)                                   *
 *(17) UNIVERSITY COLLEGE LONDON - LONDON (UK)                                 *
 *(18) CAMBRIDGE UNIVERSITY - CAMBRIDGE (UK)                                   *
 *                                                                             *
 *******************************************************************************
 EEEEEEEEEE STARTING  DATE 10 03 2023 TIME 10:29:27.4
 Bulk                                                                            

 GEOMETRY INPUT FROM EXTERNAL FILE (FORTRAN UNIT 34)
 3D - CRYSTAL 

 *******************************************************************************
 LATTICE PARAMETERS  (ANGSTROMS AND DEGREES) - PRIMITIVE CELL
       A          B          C        ALPHA      BETA     GAMMA        VOLUME
    9.91505    9.91088    9.89341    60.07203  60.06966  59.94616    687.900228
 INFORMATION **** CHKGRP **** SPGR WITH NO INVERSION

 NUMBER OF IRREDUCIBLE ATOMS IN THE CELL:   54

 CARTESIAN COORDINATES (ANGSTROM) - IRREDUCIBLE ATOMS AND SYMMETRY RELATED

 AT.IRR.  AT  AT.N.          X                   Y                   Z
     1     1    20   -1.312650080700E-02  3.958223786000E-03 -1.949763124400E-02
     2     2    20    2.342611936595E+00  2.332612334725E+00 -7.052931267100E-02
     3     3    20   -2.340923186345E+00 -2.309062576911E+00 -5.413844088600E-02
     4     4    20    2.346149548649E+00 -3.805527844900E-02  2.345535362799E+00
     5     5    20    4.675399666193E+00  2.343234888628E+00  2.335549928349E+00
     6     6    20    3.581055491200E-02 -2.354562440751E+00  2.366460208530E+00
     7     7    20   -2.338089244577E+00 -1.950313981400E-02 -2.321726093418E+00
     8     8    20    4.347182867300E-02  2.347973101785E+00 -2.343688420533E+00
     9     9    12   -4.601055292058E+00 -2.329146237082E+00 -2.368174758644E+00
    10    10    20   -9.984980557700E-02  2.369351848287E+00  2.350038066517E+00
    11    11    20    2.323479966080E+00  4.717474194543E+00  2.354842598965E+00
    12    12    20   -2.390541874262E+00  5.473338982200E-02  2.376146164337E+00
    13    13    20    2.326620099922E+00  2.348208887050E+00  4.698102851803E+00
    14    14    12    4.645689074644E+00  4.634532924116E+00  4.680792840122E+00
    15    15    20   -2.724962280800E-02 -1.952016365300E-02  4.696106615503E+00
    16    16    12   -2.392684331321E+00  2.364311414484E+00 -5.022693522400E-02
    17    17    20   -2.525168081700E-02  4.663011759901E+00 -4.051293719000E-03
    18    18    12   -4.644539029748E+00  3.898494872400E-02 -3.890771795100E-02
    19    19    12   -4.290337911600E-02 -2.341357554583E+00 -2.367221704956E+00
    20    20    12    2.382701865920E+00 -1.241368421560E-01 -2.327671474972E+00
    21    21    12   -2.388997985357E+00 -4.514032314496E+00 -2.359775319966E+00
    22    22    20    2.375051608995E+00 -2.374984286344E+00 -1.302730227200E-02
    23    23    20    4.663822176025E+00 -4.370564360600E-02 -4.137760042700E-02
    24    24    20    3.964403452800E-02 -4.677153064379E+00 -1.611205160100E-02
    25    25    12   -2.377919166970E+00 -2.421296404251E+00 -4.545504751520E+00
    26    26    20    4.123840466900E-02 -1.221984299100E-02 -4.646862289137E+00
    27    27    12   -4.574437495632E+00 -4.684573910522E+00 -4.599819490111E+00
    28    28     8    9.154164531000E-02 -1.325273076510E-01 -2.332200724848E+00
    29    29     8    2.449460359698E+00  2.433736673493E+00 -2.419797482861E+00
    30    30     8   -2.332691580092E+00 -2.391300341130E+00 -2.409874502380E+00
    31    31     8    2.322141234787E+00 -7.049520438000E-03 -9.364959540800E-02
    32    32     8    4.664532192365E+00  2.323357951434E+00 -9.701157588500E-02
    33    33     8   -4.652619045000E-03 -2.338585571544E+00 -8.870666287700E-02
    34    34     8    4.661824645265E+00 -8.091704230400E-02  2.337471280767E+00
    35    35     8    7.077650835986E+00  2.326642842001E+00  2.339736545975E+00
    36    36     8    2.441568747478E+00 -2.404353623861E+00  2.442398296642E+00
    37    37     8   -8.408950993200E-02  2.325326885890E+00 -5.344203751000E-03
    38    38     8    2.343896422999E+00  4.760460682271E+00 -1.059475615140E-01
    39    39     8   -2.446118724823E+00  1.182155758340E-01 -1.736369861000E-03
    40    40     8    2.331061319553E+00  2.332798327670E+00  2.331878879017E+00
    41    41     8    4.674279879566E+00  4.656431275857E+00  2.406176308456E+00
    42    42     8   -3.847251999000E-03  3.575686965000E-03  2.347605497739E+00
    43    43     8    4.659339489943E+00  2.421345010662E+00  4.730249206410E+00
    44    44     8    6.974566211553E+00  4.658253437292E+00  4.671376966362E+00
    45    45     8    2.329208566236E+00 -8.938873477700E-02  4.748458291148E+00
    46    46     8   -7.648626203400E-02  4.665558492349E+00  2.458121811966E+00
    47    47     8    2.334449626139E+00  7.105787439478E+00  2.401804035371E+00
    48    48     8   -2.439310479754E+00  2.462176631703E+00  2.411011279790E+00
    49    49     8    2.362774782607E+00  4.726240592124E+00  4.674329221075E+00
    50    50     8    4.548923710258E+00  6.898417447956E+00  4.685175381676E+00
    51    51     8   -9.685043896300E-02  2.456179299387E+00  4.676863861899E+00
    52    52     8    4.663395998456E+00  4.528556682513E+00  6.948417817889E+00
    53    53     8    7.104509642887E+00  6.998938563805E+00  7.023685592870E+00
    54    54     8    2.438022525219E+00  2.231290693525E+00  7.077536637540E+00

 SYMMETRY CHANGED DURING OLD RUN :  INFORMATION ON SPACE GROUP LOST 
 NUMBER OF SYMMETRY OPERATORS         :    1
 *******************************************************************************
 LATTICE PARAMETERS (ANGSTROMS AND DEGREES) - BOHR = 0.5291772083 ANGSTROM
 PRIMITIVE CELL - CENTRING CODE 1/0 VOLUME=   687.900228 - DENSITY  3.300 g/cm^3
         A              B              C           ALPHA      BETA       GAMMA 
     9.91505314     9.91088467     9.89341394    60.072032  60.069655  59.946157
 *******************************************************************************
 ATOMS IN THE ASYMMETRIC UNIT   54 - ATOMS IN THE UNIT CELL:   54
     ATOM                 X/A                 Y/B                 Z/C    
 *******************************************************************************
      1 T  20 CA   -1.691006596026E-04 -2.608797707838E-03  7.327864286711E-04
      2 T  20 CA   -5.592685878123E-03 -4.424854555725E-03  3.391586068061E-01
      3 T  20 CA   -1.723007102259E-03 -6.019005739739E-03 -3.284766814744E-01
      4 T  20 CA   -3.099982240231E-03  3.372912247812E-01 -2.009337037914E-03
      5 T  20 CA    4.775230029030E-05  3.327495438992E-01  3.353591502472E-01
      6 T  20 CA   -2.191916175316E-03  3.393350409690E-01 -3.341769710169E-01
      7 T  20 CA    1.099695387950E-04 -3.309084840977E-01 -3.221682820295E-03
      8 T  20 CA   -2.313876465430E-03 -3.315831308932E-01  3.377534664994E-01
      9 T  12 MG   -6.669091479368E-03 -3.307739133036E-01 -3.267132430587E-01
     10 T  20 CA    3.436524795879E-01 -8.919376132833E-03 -5.257306113566E-03
     11 T  20 CA    3.387723457598E-01 -3.323330829898E-03  3.354155930496E-01
     12 T  20 CA    3.436627045518E-01 -5.238851734038E-03 -3.362543385809E-01
     13 T  20 CA    3.362095538469E-01  3.330770233051E-01 -4.954269745542E-04
     14 T  12 MG    3.327806307941E-01  3.340696687931E-01  3.298828707280E-01
     15 T  20 CA    3.349336487868E-01  3.340392020107E-01 -3.378022460708E-01
     16 T  12 MG    3.359740483838E-01 -3.432265379665E-01  1.383633585556E-03
     17 T  20 CA    3.344986855481E-01 -3.351426290564E-01  3.315827467959E-01
     18 T  12 MG    3.313955839688E-01 -3.370628504195E-01 -3.265480133902E-01
     19 T  12 MG   -3.326916967411E-01 -4.493477835295E-03 -1.726555781412E-03
     20 T  12 MG   -3.446078172641E-01  1.309009217718E-02  3.272835510638E-01
     21 T  12 MG   -3.199211717398E-01 -1.623516097571E-02 -3.252163289719E-01
     22 T  20 CA   -3.399821036825E-01  3.382235330542E-01  1.098144795077E-03
     23 T  20 CA   -3.388251833024E-01  3.330561679791E-01  3.333075842270E-01
     24 T  20 CA   -3.379711105069E-01  3.357433155056E-01 -3.301277653143E-01
     25 T  12 MG   -3.269029529793E-01 -3.206459400952E-01 -1.926176202622E-02
     26 T  20 CA   -3.346918718258E-01 -3.272651648990E-01  3.330279627058E-01
     27 T  12 MG   -3.356721098171E-01 -3.196406981038E-01 -3.341297052249E-01
     28 T   8 O    -1.820580567185E-01 -1.501660225203E-01  1.631792462943E-01
     29 T   8 O    -1.732730844280E-01 -1.714027450696E-01 -4.786613118847E-01
     30 T   8 O    -1.759216411729E-01 -1.674000655923E-01 -1.659858431579E-01
     31 T   8 O    -1.728535497840E-01  1.595751049278E-01  1.722089821050E-01
     32 T   8 O    -1.738053100591E-01  1.600775213324E-01 -4.935894106608E-01
     33 T   8 O    -1.729826445066E-01  1.603791875892E-01 -1.610705829263E-01
     34 T   8 O    -1.719554686174E-01 -4.949395068163E-01  1.610836115833E-01
     35 T   8 O    -1.722366060804E-01 -4.943052273288E-01 -4.943532890215E-01
     36 T   8 O    -1.719882263272E-01 -4.799860194348E-01 -1.711203868683E-01
     37 T   8 O     1.716706490169E-01 -1.724671817168E-01  1.604763792429E-01
     38 T   8 O     1.651662846016E-01 -1.802636595264E-01 -4.847949594927E-01
     39 T   8 O     1.828456541943E-01 -1.831600947868E-01 -1.663393581356E-01
     40 T   8 O     1.663067018942E-01  1.659051001441E-01  1.672451043753E-01
     41 T   8 O     1.703418148300E-01  1.724835580947E-01  4.954910069329E-01
     42 T   8 O     1.676896283889E-01  1.667330775251E-01 -1.672174597892E-01
     43 T   8 O     1.772845419694E-01  4.966427147172E-01  1.692386982166E-01
     44 T   8 O     1.676415794930E-01  4.979293441648E-01  4.987723658831E-01
     45 T   8 O     1.655416511167E-01 -4.890471537331E-01 -1.780251978874E-01
     46 T   8 O    -4.863464213913E-01 -1.635555979798E-01  1.527438225945E-01
     47 T   8 O    -4.881171145442E-01 -1.697776724450E-01 -4.965367401818E-01
     48 T   8 O    -4.784597436930E-01 -1.781852284682E-01 -1.702501587861E-01
     49 T   8 O    -4.982476773133E-01  1.641148670392E-01  1.736564090465E-01
     50 T   8 O    -4.983393234795E-01  1.657792246465E-01  4.843710261287E-01
     51 T   8 O    -4.846809904544E-01  1.508756761392E-01 -1.645582156204E-01
     52 T   8 O     4.854143335854E-01 -4.955326426019E-01  1.620770974681E-01
     53 T   8 O     4.930131824513E-01 -4.923791561344E-01 -4.922632682248E-01
     54 T   8 O     4.893381118218E-01 -4.810900102989E-01 -1.703463003092E-01

 T = ATOM BELONGING TO THE ASYMMETRIC UNIT
 *******************************************************************************
 * GEOMETRY EDITING - INPUT COORDINATES ARE GIVEN IN ANGSTROM         
 *******************************************************************************

 GCALCO - MAX INDICES DIRECT LATTICE VECTOR    14    14    14
 NO.OF VECTORS CREATED 6999 STARS 3500 RMAX   198.30950 BOHR

 GEOMETRY FOR WAVE FUNCTION - DIMENSIONALITY OF THE SYSTEM    3
 (NON PERIODIC DIRECTION: LATTICE PARAMETER FORMALLY SET TO 500)
 *******************************************************************************
 LATTICE PARAMETERS (ANGSTROMS AND DEGREES) - BOHR = 0.5291772083 ANGSTROM
 PRIMITIVE CELL - CENTRING CODE 1/0 VOLUME=   687.900228 - DENSITY  3.300 g/cm^3
         A              B              C           ALPHA      BETA       GAMMA 
     9.91505314     9.91088467     9.89341394    60.072032  60.069655  59.946157
 *******************************************************************************
 ATOMS IN THE ASYMMETRIC UNIT   54 - ATOMS IN THE UNIT CELL:   54
     ATOM                 X/A                 Y/B                 Z/C    
 *******************************************************************************
      1 T  20 CA   -1.691006596026E-04 -2.608797707838E-03  7.327864286711E-04
      2 T  20 CA   -5.592685878123E-03 -4.424854555725E-03  3.391586068061E-01
      3 T  20 CA   -1.723007102259E-03 -6.019005739739E-03 -3.284766814744E-01
      4 T  20 CA   -3.099982240231E-03  3.372912247812E-01 -2.009337037914E-03
      5 T  20 CA    4.775230029030E-05  3.327495438992E-01  3.353591502472E-01
      6 T  20 CA   -2.191916175316E-03  3.393350409690E-01 -3.341769710169E-01
      7 T  20 CA    1.099695387950E-04 -3.309084840977E-01 -3.221682820295E-03
      8 T  20 CA   -2.313876465430E-03 -3.315831308932E-01  3.377534664994E-01
      9 T  12 MG   -6.669091479368E-03 -3.307739133036E-01 -3.267132430587E-01
     10 T  20 CA    3.436524795879E-01 -8.919376132833E-03 -5.257306113566E-03
     11 T  20 CA    3.387723457598E-01 -3.323330829898E-03  3.354155930496E-01
     12 T  20 CA    3.436627045518E-01 -5.238851734038E-03 -3.362543385809E-01
     13 T  20 CA    3.362095538469E-01  3.330770233051E-01 -4.954269745541E-04
     14 T  12 MG    3.327806307941E-01  3.340696687931E-01  3.298828707280E-01
     15 T  20 CA    3.349336487868E-01  3.340392020107E-01 -3.378022460708E-01
     16 T  12 MG    3.359740483838E-01 -3.432265379665E-01  1.383633585556E-03
     17 T  20 CA    3.344986855481E-01 -3.351426290564E-01  3.315827467959E-01
     18 T  12 MG    3.313955839688E-01 -3.370628504195E-01 -3.265480133902E-01
     19 T  12 MG   -3.326916967411E-01 -4.493477835295E-03 -1.726555781412E-03
     20 T  12 MG   -3.446078172641E-01  1.309009217718E-02  3.272835510638E-01
     21 T  12 MG   -3.199211717398E-01 -1.623516097571E-02 -3.252163289719E-01
     22 T  20 CA   -3.399821036825E-01  3.382235330542E-01  1.098144795077E-03
     23 T  20 CA   -3.388251833024E-01  3.330561679791E-01  3.333075842270E-01
     24 T  20 CA   -3.379711105069E-01  3.357433155056E-01 -3.301277653143E-01
     25 T  12 MG   -3.269029529793E-01 -3.206459400952E-01 -1.926176202622E-02
     26 T  20 CA   -3.346918718258E-01 -3.272651648990E-01  3.330279627058E-01
     27 T  12 MG   -3.356721098171E-01 -3.196406981038E-01 -3.341297052249E-01
     28 T   8 O    -1.820580567185E-01 -1.501660225203E-01  1.631792462943E-01
     29 T   8 O    -1.732730844280E-01 -1.714027450696E-01 -4.786613118847E-01
     30 T   8 O    -1.759216411729E-01 -1.674000655923E-01 -1.659858431579E-01
     31 T   8 O    -1.728535497840E-01  1.595751049278E-01  1.722089821050E-01
     32 T   8 O    -1.738053100591E-01  1.600775213324E-01 -4.935894106608E-01
     33 T   8 O    -1.729826445066E-01  1.603791875892E-01 -1.610705829263E-01
     34 T   8 O    -1.719554686174E-01 -4.949395068163E-01  1.610836115833E-01
     35 T   8 O    -1.722366060804E-01 -4.943052273288E-01 -4.943532890215E-01
     36 T   8 O    -1.719882263272E-01 -4.799860194348E-01 -1.711203868683E-01
     37 T   8 O     1.716706490169E-01 -1.724671817168E-01  1.604763792429E-01
     38 T   8 O     1.651662846016E-01 -1.802636595264E-01 -4.847949594927E-01
     39 T   8 O     1.828456541943E-01 -1.831600947868E-01 -1.663393581356E-01
     40 T   8 O     1.663067018942E-01  1.659051001441E-01  1.672451043753E-01
     41 T   8 O     1.703418148300E-01  1.724835580947E-01  4.954910069329E-01
     42 T   8 O     1.676896283889E-01  1.667330775251E-01 -1.672174597892E-01
     43 T   8 O     1.772845419694E-01  4.966427147172E-01  1.692386982166E-01
     44 T   8 O     1.676415794930E-01  4.979293441648E-01  4.987723658831E-01
     45 T   8 O     1.655416511167E-01 -4.890471537331E-01 -1.780251978874E-01
     46 T   8 O    -4.863464213913E-01 -1.635555979798E-01  1.527438225945E-01
     47 T   8 O    -4.881171145442E-01 -1.697776724450E-01 -4.965367401818E-01
     48 T   8 O    -4.784597436930E-01 -1.781852284682E-01 -1.702501587861E-01
     49 T   8 O    -4.982476773133E-01  1.641148670392E-01  1.736564090465E-01
     50 T   8 O    -4.983393234795E-01  1.657792246465E-01  4.843710261287E-01
     51 T   8 O    -4.846809904544E-01  1.508756761392E-01 -1.645582156204E-01
     52 T   8 O     4.854143335854E-01 -4.955326426019E-01  1.620770974681E-01
     53 T   8 O     4.930131824513E-01 -4.923791561344E-01 -4.922632682248E-01
     54 T   8 O     4.893381118218E-01 -4.810900102989E-01 -1.703463003092E-01

 T = ATOM BELONGING TO THE ASYMMETRIC UNIT

 ****    1 SYMMOPS - TRANSLATORS IN FRACTIONAL UNITS
 **** MATRICES AND TRANSLATORS IN THE CRYSTALLOGRAPHIC REFERENCE FRAME
   V INV                    ROTATION MATRICES                   TRANSLATORS
   1   1  1.00  0.00  0.00  0.00  1.00  0.00  0.00  0.00  1.00  0.00  0.00  0.00

 DIRECT LATTICE VECTORS CARTESIAN COMPONENTS (ANGSTROM)
          X                    Y                    Z
  -0.187255826871E-02   0.700142022103E+01   0.702056908066E+01
   0.699753120292E+01  -0.681811327623E-02   0.701855722257E+01
   0.699839094204E+01   0.699300817366E+01  -0.617351917652E-03


 CARTESIAN COORDINATES - PRIMITIVE CELL
 *******************************************************************************
 *      ATOM          X(ANGSTROM)         Y(ANGSTROM)         Z(ANGSTROM)
 *******************************************************************************
    1    20 CA   -1.312650080700E-02  3.958223786000E-03 -1.949763124400E-02
    2    20 CA    2.342611936595E+00  2.332612334725E+00 -7.052931267100E-02
    3    20 CA   -2.340923186345E+00 -2.309062576911E+00 -5.413844088600E-02
    4    20 CA    2.346149548649E+00 -3.805527844900E-02  2.345535362799E+00
    5    20 CA    4.675399666193E+00  2.343234888628E+00  2.335549928349E+00
    6    20 CA    3.581055491200E-02 -2.354562440751E+00  2.366460208530E+00
    7    20 CA   -2.338089244577E+00 -1.950313981400E-02 -2.321726093418E+00
    8    20 CA    4.347182867300E-02  2.347973101785E+00 -2.343688420533E+00
    9    12 MG   -4.601055292058E+00 -2.329146237082E+00 -2.368174758644E+00
   10    20 CA   -9.984980557700E-02  2.369351848287E+00  2.350038066517E+00
   11    20 CA    2.323479966080E+00  4.717474194543E+00  2.354842598965E+00
   12    20 CA   -2.390541874262E+00  5.473338982200E-02  2.376146164337E+00
   13    20 CA    2.326620099922E+00  2.348208887050E+00  4.698102851803E+00
   14    12 MG    4.645689074644E+00  4.634532924116E+00  4.680792840122E+00
   15    20 CA   -2.724962280800E-02 -1.952016365300E-02  4.696106615503E+00
   16    12 MG   -2.392684331321E+00  2.364311414484E+00 -5.022693522400E-02
   17    20 CA   -2.525168081700E-02  4.663011759901E+00 -4.051293719000E-03
   18    12 MG   -4.644539029748E+00  3.898494872400E-02 -3.890771795100E-02
   19    12 MG   -4.290337911600E-02 -2.341357554583E+00 -2.367221704956E+00
   20    12 MG    2.382701865920E+00 -1.241368421560E-01 -2.327671474972E+00
   21    12 MG   -2.388997985357E+00 -4.514032314496E+00 -2.359775319966E+00
   22    20 CA    2.375051608995E+00 -2.374984286344E+00 -1.302730227200E-02
   23    20 CA    4.663822176025E+00 -4.370564360600E-02 -4.137760042700E-02
   24    20 CA    3.964403452800E-02 -4.677153064379E+00 -1.611205160100E-02
   25    12 MG   -2.377919166970E+00 -2.421296404251E+00 -4.545504751520E+00
   26    20 CA    4.123840466900E-02 -1.221984299100E-02 -4.646862289137E+00
   27    12 MG   -4.574437495632E+00 -4.684573910522E+00 -4.599819490111E+00
   28     8 O     9.154164531000E-02 -1.325273076510E-01 -2.332200724848E+00
   29     8 O     2.449460359698E+00  2.433736673493E+00 -2.419797482861E+00
   30     8 O    -2.332691580092E+00 -2.391300341130E+00 -2.409874502380E+00
   31     8 O     2.322141234787E+00 -7.049520438000E-03 -9.364959540800E-02
   32     8 O     4.664532192365E+00  2.323357951434E+00 -9.701157588500E-02
   33     8 O    -4.652619045000E-03 -2.338585571544E+00 -8.870666287700E-02
   34     8 O     4.661824645265E+00 -8.091704230400E-02  2.337471280767E+00
   35     8 O     7.077650835986E+00  2.326642842001E+00  2.339736545975E+00
   36     8 O     2.441568747478E+00 -2.404353623861E+00  2.442398296642E+00
   37     8 O    -8.408950993200E-02  2.325326885890E+00 -5.344203751000E-03
   38     8 O     2.343896422999E+00  4.760460682271E+00 -1.059475615140E-01
   39     8 O    -2.446118724823E+00  1.182155758340E-01 -1.736369861000E-03
   40     8 O     2.331061319553E+00  2.332798327670E+00  2.331878879017E+00
   41     8 O     4.674279879566E+00  4.656431275857E+00  2.406176308456E+00
   42     8 O    -3.847251999000E-03  3.575686965000E-03  2.347605497739E+00
   43     8 O     4.659339489943E+00  2.421345010662E+00  4.730249206410E+00
   44     8 O     6.974566211553E+00  4.658253437292E+00  4.671376966362E+00
   45     8 O     2.329208566236E+00 -8.938873477700E-02  4.748458291148E+00
   46     8 O    -7.648626203400E-02  4.665558492349E+00  2.458121811966E+00
   47     8 O     2.334449626139E+00  7.105787439478E+00  2.401804035371E+00
   48     8 O    -2.439310479754E+00  2.462176631703E+00  2.411011279790E+00
   49     8 O     2.362774782607E+00  4.726240592124E+00  4.674329221075E+00
   50     8 O     4.548923710258E+00  6.898417447956E+00  4.685175381676E+00
   51     8 O    -9.685043896300E-02  2.456179299387E+00  4.676863861899E+00
   52     8 O     4.663395998456E+00  4.528556682513E+00  6.948417817889E+00
   53     8 O     7.104509642887E+00  6.998938563805E+00  7.023685592870E+00
   54     8 O     2.438022525219E+00  2.231290693525E+00  7.077536637540E+00
 WARNING **** CRYSTA **** TESTGEOM  DIRECTIVE - GEOMETRY EDITING COMPLETE
 TTTTTTTTTTTTTTTTTTTTTTTTTTTTTT END         TELAPSE        0.01 TCPU        0.01
 EEEEEEEEEE TERMINATION  DATE 10 03 2023 TIME 10:29:27.4
Fri 10 Mar 2023 10:29:27 GMT
Contents of temporary directory:
total 8
-rw-r--r--  1 brunocamino  admin  4027 10 Mar 10:29 fort.34
SCF abnormal end - no wf written in fort.9
geometry input file fort.34 saved as /Users/brunocamino/Desktop/Imperial/cmsg_icl/solid-solutions/./data/crystal/testgeom_opt/CaMgO_testgeom_1243.gui
temporary directory /Users/brunocamino/crystal/tmp removed
