date Fri 10 Mar 2023 10:33:01 GMT
hostname MacBook-Pro-8
system Darwin MacBook-Pro-8 21.6.0 Darwin Kernel Version 21.6.0: Mon Aug 22 20:20:05 PDT 2022; root:xnu-8020.140.49~2/RELEASE_ARM64_T8101 arm64
user brunocamino
output data in /Users/brunocamino/Desktop/Imperial/cmsg_icl/solid-solutions/./data/crystal/testgeom_opt/CaMgO_testgeom_3933.out
crystal executable in /Users/brunocamino/crystal
input data in /Users/brunocamino/Desktop/Imperial/cmsg_icl/solid-solutions/./data/crystal/testgeom_opt/CaMgO_testgeom_3933.d12
temporary directory /Users/brunocamino/crystal/tmp
external geometry input from /Users/brunocamino/Desktop/Imperial/cmsg_icl/solid-solutions/./data/crystal/testgeom_opt/CaMgO_testgeom_3933.gui
external geometry input saved in /Users/brunocamino/Desktop/Imperial/cmsg_icl/solid-solutions/./data/crystal/testgeom_opt/CaMgO_testgeom_3933_inp.gui
Bulk 
EXTERNAL
EXTPRT
TESTGEOM
END

         
 *******************************************************************************
 *                                                                             *
 *                               CRYSTAL17                                     *
 *                      public : 1.0.1 - Feb 1st, 2017                         *
 *                       HTTP://WWW.CRYSTAL.UNITO.IT                           *
 *                                                                             *
 *                              MAIN AUTHORS                                   *
 *                                                                             *
 *  R. DOVESI(1,11), V.R. SAUNDERS(2), C. ROETTI(1,11), R. ORLANDO(1,11),      *
 *  C.M. ZICOVICH-WILSON(1,3), F. PASCALE(4), B. CIVALLERI(1,11),              *
 *  K. DOLL(5), N.M. HARRISON(2,6), I.J. BUSH(7), Ph. D'ARCO(8),               *
 *  M. LLUNELL(9), M. CAUSA'(10), Y. NOEL(8), L. MASCHIO(1,11), A. ERBA(1,11)  *
 *  M. RE'RAT(14), S. CASASSA(1,11)                                            *
 *                                                                             *
 *        CONTRIBUTIONS TO THE CODE HAVE ALSO BEEN GIVEN BY                    *
 *                                                                             *
 *  M. FERRABONE(1,11), M. DE LA PIERRE(1,11), M. FERRERO(1,11),               *
 *  J. BAIMA(1,11), E. ALBANESE(1,11), M.F. PEINTINGER(12), R. BAST(13),       *
 *  B. KIRTMAN(15), V. LACIVITA(1,11), R. DEMICHELIS(1,16)                     *
 *  G. BRANDEBURG(17), S. SALUSTRO(1,11), G. SANSONE(1,11)                     *
 *  M.T. RUGGIERO(18)                                                          *
 *                                                                             *
 * (1) THEORETICAL CHEMISTRY GROUP - UNIVERSITA' DI TORINO - TORINO (ITALY)    *

 * (2) COMPUTATIONAL SCIENCE & ENGINEERING DEPARTMENT - STFC DARESBURY (UK)    *
 * (3) UNIVERSIDAD AUTONOMA DEL ESTADO DE MORELOS - CUERNAVACA (MEXICO)        *
 * (4) UNIVERSITE' DE LORRAINE - NANCY (FRANCE)                                *
 * (5) UNIVERSITAET STUTTGART- STUTTGART (GERMANY)                             *
 * (6) IMPERIAL COLLEGE - LONDON (UK)                                          *
 * (7) OXFORD E-RESEARCH CENTRE - OXFORD (UK)                                  *
 * (8) UPMC - SORBONNE UNIVERSITES - PARIS (FRANCE)                            *
 * (9) UNIVERSIDAD DE BARCELONA - BARCELONA (SPAIN)                            *
 *(10) UNIVERSITA' DI NAPOLI "FEDERICO II" - NAPOLI (ITALY)                    *
 *(11) NIS - NANOSTRUCTURED INTERFACES AND SURFACES - TORINO (ITALY)           *
 *(12) MPI FUER CHEMISCHE ENERGIEKONVERSION - MUELHEIM AN DER RUHR (GERMANY)   *
 *(13) UNIVERSITY OF TROMSO - TROMSO (NORWAY)                                  *
 *(14) UNIVERSITE' DE PAU ET DES PAYS DE L'ADOUR - PAU (FRANCE)                *
 *(15) UNIVERSITY OF CALIFORNIA SANTA BARBARA - SANTA BARBARA (USA)            *
 *(16) CURTIN UNIVERSITY - PERTH (AUSTRALIA)                                   *
 *(17) UNIVERSITY COLLEGE LONDON - LONDON (UK)                                 *
 *(18) CAMBRIDGE UNIVERSITY - CAMBRIDGE (UK)                                   *
 *                                                                             *
 *******************************************************************************
 EEEEEEEEEE STARTING  DATE 10 03 2023 TIME 10:33:02.0
 Bulk                                                                            

 GEOMETRY INPUT FROM EXTERNAL FILE (FORTRAN UNIT 34)
 3D - CRYSTAL 

 *******************************************************************************
 LATTICE PARAMETERS  (ANGSTROMS AND DEGREES) - PRIMITIVE CELL
       A          B          C        ALPHA      BETA     GAMMA        VOLUME
    9.93078    9.92588    9.86045    60.24702  60.21907  59.74857    688.362014
 INFORMATION **** CHKGRP **** SPGR WITH NO INVERSION

 NUMBER OF IRREDUCIBLE ATOMS IN THE CELL:   54

 CARTESIAN COORDINATES (ANGSTROM) - IRREDUCIBLE ATOMS AND SYMMETRY RELATED

 AT.IRR.  AT  AT.N.          X                   Y                   Z
     1     1    20    2.484366130900E-02  2.563286460300E-02 -9.425989719000E-03
     2     2    20    2.310734937445E+00  2.342344104810E+00  8.380314490000E-03
     3     3    20   -2.343024929191E+00 -2.340256519876E+00  6.464356007000E-03
     4     4    20    2.317768485796E+00 -2.989430083000E-02  2.348815497585E+00
     5     5    20    4.669738014567E+00  2.286776365591E+00  2.313985460374E+00
     6     6    20    5.384629641700E-02 -2.339220516978E+00  2.382605518844E+00
     7     7    20   -2.343892748758E+00 -1.552726166400E-02 -2.356114008014E+00
     8     8    12    2.943234525400E-02  2.307955950955E+00 -2.372659283077E+00
     9     9    12   -4.707409604803E+00 -2.323407637777E+00 -2.334298598717E+00
    10    10    12    5.535602097000E-03  2.390271848071E+00  2.402490904181E+00
    11    11    12    2.313990584236E+00  4.619606617638E+00  2.370457038673E+00
    12    12    20   -2.312664219815E+00  2.892646027400E-02  2.362731772176E+00
    13    13    20    2.284565063291E+00  2.331416915091E+00  4.707915233721E+00
    14    14    20    4.675778857461E+00  4.656307437418E+00  4.691276932090E+00
    15    15    12    2.634775214900E-02  9.032314784900E-02  4.728373266042E+00
    16    16    20   -2.304927499632E+00  2.385228781985E+00  2.222980713000E-02
    17    17    20   -1.421782083500E-02  4.662811005862E+00 -4.242020311100E-02
    18    18    20   -4.709490357485E+00 -1.627497780000E-04 -6.599269992000E-03
    19    19    20    1.107782771700E-02 -2.375593958186E+00 -2.366568083761E+00
    20    20    20    2.348158723009E+00 -3.298238278100E-02 -2.338793125292E+00
    21    21    20   -2.301144599682E+00 -4.645133713840E+00 -2.330003869907E+00
    22    22    12    2.341939821883E+00 -2.329111143037E+00  2.670360870200E-02
    23    23    12    4.713380643951E+00 -4.042902936800E-02  1.170850626000E-03
    24    24    12   -4.202328087000E-03 -4.686868398007E+00  3.481163933400E-02
    25    25    12   -2.432769182222E+00 -2.301688794786E+00 -4.769251916950E+00
    26    26    20   -1.577896229500E-02 -4.033068911300E-02 -4.716218959666E+00
    27    27    20   -4.654694761749E+00 -4.601944938409E+00 -4.700475925074E+00
    28    28     8    3.047237952000E-03  6.950039126500E-02 -2.349318235592E+00
    29    29     8    2.206535040536E+00  2.400335523013E+00 -2.358915774342E+00
    30    30     8   -2.440440748946E+00 -2.315740554126E+00 -2.323608246996E+00
    31    31     8    2.430002539534E+00 -8.323958830900E-02  4.529244650000E-04
    32    32     8    4.756028065495E+00  2.236544367612E+00  9.432858477000E-03
    33    33     8    1.058542752840E-01 -2.412642406087E+00 -3.055116015000E-03
    34    34     8    4.648916469965E+00 -1.339934899740E-01  2.294178680996E+00
    35    35     8    6.981168623014E+00  2.297087811975E+00  2.356318451600E+00
    36    36     8    2.434815618252E+00 -2.330080362382E+00  2.334171751777E+00
    37    37     8   -3.282696050000E-04  2.324494722550E+00 -2.498864092800E-02
    38    38     8    2.318599462786E+00  4.656987260607E+00 -4.648822884000E-03
    39    39     8   -2.339139208316E+00  2.557494902800E-02  1.684785441200E-02
    40    40     8    2.229229356726E+00  2.437566221900E+00  2.358728643231E+00
    41    41     8    4.562517164673E+00  4.637636277290E+00  2.354927790907E+00
    42    42     8   -8.995524135000E-03  1.010784025250E-01  2.398919140454E+00
    43    43     8    4.745312521662E+00  2.309894416884E+00  4.666668225409E+00
    44    44     8    7.096370299919E+00  4.623740536335E+00  4.694094435307E+00
    45    45     8    2.199262734557E+00 -1.155028525010E-01  4.715272307069E+00
    46    46     8    2.487586817500E-02  4.539982868801E+00  2.353147948720E+00
    47    47     8    2.317480182456E+00  6.892303249117E+00  2.353636099059E+00
    48    48     8   -2.223911869633E+00  2.471236769311E+00  2.353091840914E+00
    49    49     8    2.331651442862E+00  4.647760317295E+00  4.666966567102E+00
    50    50     8    4.747560600365E+00  6.974492891950E+00  4.730390692606E+00
    51    51     8   -3.707021167000E-03  2.220828237742E+00  4.676923741230E+00
    52    52     8    4.543870285416E+00  4.744301657366E+00  7.112281205962E+00
    53    53     8    6.874952135738E+00  7.074287225712E+00  7.010206146466E+00
    54    54     8    2.225481625223E+00  2.426642661040E+00  7.060191286666E+00

 SYMMETRY CHANGED DURING OLD RUN :  INFORMATION ON SPACE GROUP LOST 
 NUMBER OF SYMMETRY OPERATORS         :    1
 *******************************************************************************
 LATTICE PARAMETERS (ANGSTROMS AND DEGREES) - BOHR = 0.5291772083 ANGSTROM
 PRIMITIVE CELL - CENTRING CODE 1/0 VOLUME=   688.362014 - DENSITY  3.298 g/cm^3
         A              B              C           ALPHA      BETA       GAMMA 
     9.93078258     9.92587540     9.86044613    60.247018  60.219071  59.748575
 *******************************************************************************
 ATOMS IN THE ASYMMETRIC UNIT   54 - ATOMS IN THE UNIT CELL:   54
     ATOM                 X/A                 Y/B                 Z/C    
 *******************************************************************************
      1 T  20 CA   -6.105372606601E-04 -7.245444178907E-04  4.287165873980E-03
      2 T  20 CA    2.912456764339E-03 -1.690676369513E-03  3.330663342893E-01
      3 T  20 CA    5.961284979603E-04  2.846928751798E-04 -3.362853419659E-01
      4 T  20 CA   -1.445517905311E-03  3.342596151889E-01 -2.187702525749E-03
      5 T  20 CA   -6.376384660967E-03  3.342910818255E-01  3.350586209073E-01
      6 T  20 CA   -2.356401401724E-03  3.399240383416E-01 -3.325158084796E-01
      7 T  20 CA   -4.518415413633E-04 -3.333966408835E-01 -2.424712603260E-03
      8 T  12 MG   -5.126980300156E-03 -3.310300114580E-01  3.355471157024E-01
      9 T  12 MG    5.011125050045E-03 -3.358043038689E-01 -3.389479634441E-01
     10 T  12 MG    3.406681747191E-01 -2.940238647690E-04  1.502207700624E-03
     11 T  12 MG    3.328009719510E-01  3.069375529615E-03  3.291697869578E-01
     12 T  20 CA    3.347082502719E-01 -1.642013588543E-06 -3.312387586471E-01
     13 T  20 CA    3.368476421229E-01  3.301924505679E-01 -2.467155464974E-03
     14 T  20 CA    3.309879352536E-01  3.337307705142E-01  3.368957976009E-01
     15 T  12 MG    3.394634419003E-01  3.304412999188E-01 -3.265523433892E-01
     16 T  20 CA    3.368663380375E-01 -3.337612226001E-01  3.938018679749E-03
     17 T  20 CA    3.314071794341E-01 -3.374272483063E-01  3.360996132616E-01
     18 T  20 CA    3.361340556231E-01 -3.371493615761E-01 -3.374975855474E-01
     19 T  20 CA   -3.382619000082E-01  2.977459872139E-03 -1.802725578467E-03
     20 T  20 CA   -3.358397773096E-01  4.525352660236E-03  3.317996210181E-01
     21 T  20 CA   -3.326792483475E-01  2.540480907472E-03 -3.329424470728E-01
     22 T  12 MG   -3.320336235281E-01  3.358617890597E-01 -7.268849723757E-04
     23 T  12 MG   -3.396989355977E-01  3.399453082080E-01  3.352526359195E-01
     24 T  12 MG   -3.323495954611E-01  3.372914379456E-01 -3.386063627612E-01
     25 T  12 MG   -3.284732820536E-01 -3.472594343659E-01 -1.693268569920E-03
     26 T  20 CA   -3.357835109285E-01 -3.323991633260E-01  3.300320850593E-01
     27 T  20 CA   -3.292594827301E-01 -3.367622690967E-01 -3.308358656226E-01
     28 T   8 O    -1.616396356379E-01 -1.712061818310E-01  1.716031971541E-01
     29 T   8 O    -1.531578276608E-01 -1.810150733789E-01  4.974221789213E-01
     30 T   8 O    -1.557162128072E-01 -1.735237275210E-01 -1.764779408417E-01
     31 T   8 O    -1.796052303220E-01  1.797110277672E-01  1.683805110512E-01
     32 T   8 O    -1.793562793784E-01  1.807691182815E-01 -4.991149273065E-01
     33 T   8 O    -1.802885686110E-01  1.798626215445E-01 -1.650661602431E-01
     34 T   8 O    -1.793783000653E-01 -4.955084287474E-01  1.615063563103E-01
     35 T   8 O    -1.678514737011E-01 -4.981967851643E-01  4.986674262604E-01
     36 T   8 O    -1.753141350553E-01 -4.939396100080E-01 -1.575717333236E-01
     37 T   8 O     1.644571966535E-01 -1.680024351601E-01  1.683088292506E-01
     38 T   8 O     1.669267086253E-01 -1.675556126757E-01 -4.995899411648E-01
     39 T   8 O     1.702129869361E-01 -1.678659802610E-01 -1.672175610263E-01
     40 T   8 O     1.820107112912E-01  1.522011418557E-01  1.675632427984E-01
     41 T   8 O     1.722757274561E-01  1.614327926475E-01  4.929160835773E-01
     42 T   8 O     1.777743357563E-01  1.620983566444E-01 -1.633204477413E-01
     43 T   8 O     1.565043236212E-01 -4.952659847611E-01  1.754956170988E-01
     44 T   8 O     1.558459844790E-01 -4.906867408878E-01 -4.919355500083E-01
     45 T   8 O     1.685086665383E-01  4.995774642970E-01 -1.844443876082E-01
     46 T   8 O     4.894974523545E-01 -1.561182961929E-01  1.604233094581E-01
     47 T   8 O     4.938601523011E-01 -1.603776887905E-01  4.934624517180E-01
     48 T   8 O    -4.976906308162E-01 -1.689721602803E-01 -1.491825479527E-01
     49 T   8 O     4.962026531906E-01  1.650318491967E-01  1.697905306968E-01
     50 T   8 O     4.943799875030E-01  1.758765962922E-01 -4.946132805669E-01
     51 T   8 O     4.903008131734E-01  1.723096781989E-01 -1.724028299303E-01
     52 T   8 O    -4.818238048977E-01  4.895421021905E-01  1.622532385753E-01
     53 T   8 O    -4.890723358572E-01  4.823637365901E-01 -4.962822265263E-01
     54 T   8 O    -4.855199456590E-01  4.858236088871E-01 -1.664975149559E-01

 T = ATOM BELONGING TO THE ASYMMETRIC UNIT
 *******************************************************************************
 * GEOMETRY EDITING - INPUT COORDINATES ARE GIVEN IN ANGSTROM         
 *******************************************************************************

 GCALCO - MAX INDICES DIRECT LATTICE VECTOR    14    14    15
 NO.OF VECTORS CREATED 6999 STARS 3500 RMAX   198.45154 BOHR

 GEOMETRY FOR WAVE FUNCTION - DIMENSIONALITY OF THE SYSTEM    3
 (NON PERIODIC DIRECTION: LATTICE PARAMETER FORMALLY SET TO 500)
 *******************************************************************************
 LATTICE PARAMETERS (ANGSTROMS AND DEGREES) - BOHR = 0.5291772083 ANGSTROM
 PRIMITIVE CELL - CENTRING CODE 1/0 VOLUME=   688.362014 - DENSITY  3.298 g/cm^3
         A              B              C           ALPHA      BETA       GAMMA 
     9.93078258     9.92587540     9.86044613    60.247018  60.219071  59.748575
 *******************************************************************************
 ATOMS IN THE ASYMMETRIC UNIT   54 - ATOMS IN THE UNIT CELL:   54
     ATOM                 X/A                 Y/B                 Z/C    
 *******************************************************************************
      1 T  20 CA   -6.105372606601E-04 -7.245444178907E-04  4.287165873980E-03
      2 T  20 CA    2.912456764338E-03 -1.690676369513E-03  3.330663342893E-01
      3 T  20 CA    5.961284979604E-04  2.846928751797E-04 -3.362853419659E-01
      4 T  20 CA   -1.445517905311E-03  3.342596151889E-01 -2.187702525749E-03
      5 T  20 CA   -6.376384660967E-03  3.342910818255E-01  3.350586209073E-01
      6 T  20 CA   -2.356401401724E-03  3.399240383416E-01 -3.325158084796E-01
      7 T  20 CA   -4.518415413632E-04 -3.333966408835E-01 -2.424712603260E-03
      8 T  12 MG   -5.126980300156E-03 -3.310300114580E-01  3.355471157024E-01
      9 T  12 MG    5.011125050045E-03 -3.358043038689E-01 -3.389479634441E-01
     10 T  12 MG    3.406681747191E-01 -2.940238647689E-04  1.502207700624E-03
     11 T  12 MG    3.328009719510E-01  3.069375529615E-03  3.291697869578E-01
     12 T  20 CA    3.347082502719E-01 -1.642013588460E-06 -3.312387586471E-01
     13 T  20 CA    3.368476421229E-01  3.301924505679E-01 -2.467155464974E-03
     14 T  20 CA    3.309879352536E-01  3.337307705142E-01  3.368957976009E-01
     15 T  12 MG    3.394634419003E-01  3.304412999188E-01 -3.265523433892E-01
     16 T  20 CA    3.368663380375E-01 -3.337612226001E-01  3.938018679749E-03
     17 T  20 CA    3.314071794341E-01 -3.374272483063E-01  3.360996132616E-01
     18 T  20 CA    3.361340556231E-01 -3.371493615761E-01 -3.374975855474E-01
     19 T  20 CA   -3.382619000082E-01  2.977459872139E-03 -1.802725578467E-03
     20 T  20 CA   -3.358397773096E-01  4.525352660236E-03  3.317996210181E-01
     21 T  20 CA   -3.326792483475E-01  2.540480907472E-03 -3.329424470728E-01
     22 T  12 MG   -3.320336235281E-01  3.358617890597E-01 -7.268849723757E-04
     23 T  12 MG   -3.396989355977E-01  3.399453082080E-01  3.352526359195E-01
     24 T  12 MG   -3.323495954611E-01  3.372914379456E-01 -3.386063627612E-01
     25 T  12 MG   -3.284732820536E-01 -3.472594343659E-01 -1.693268569919E-03
     26 T  20 CA   -3.357835109285E-01 -3.323991633260E-01  3.300320850593E-01
     27 T  20 CA   -3.292594827301E-01 -3.367622690967E-01 -3.308358656226E-01
     28 T   8 O    -1.616396356379E-01 -1.712061818310E-01  1.716031971541E-01
     29 T   8 O    -1.531578276608E-01 -1.810150733789E-01  4.974221789213E-01
     30 T   8 O    -1.557162128072E-01 -1.735237275210E-01 -1.764779408417E-01
     31 T   8 O    -1.796052303220E-01  1.797110277672E-01  1.683805110512E-01
     32 T   8 O    -1.793562793784E-01  1.807691182815E-01 -4.991149273065E-01
     33 T   8 O    -1.802885686110E-01  1.798626215445E-01 -1.650661602431E-01
     34 T   8 O    -1.793783000653E-01 -4.955084287474E-01  1.615063563103E-01
     35 T   8 O    -1.678514737011E-01 -4.981967851643E-01  4.986674262604E-01
     36 T   8 O    -1.753141350553E-01 -4.939396100080E-01 -1.575717333236E-01
     37 T   8 O     1.644571966535E-01 -1.680024351601E-01  1.683088292506E-01
     38 T   8 O     1.669267086253E-01 -1.675556126757E-01 -4.995899411648E-01
     39 T   8 O     1.702129869361E-01 -1.678659802610E-01 -1.672175610263E-01
     40 T   8 O     1.820107112912E-01  1.522011418557E-01  1.675632427984E-01
     41 T   8 O     1.722757274561E-01  1.614327926475E-01  4.929160835773E-01
     42 T   8 O     1.777743357563E-01  1.620983566444E-01 -1.633204477413E-01
     43 T   8 O     1.565043236212E-01 -4.952659847611E-01  1.754956170988E-01
     44 T   8 O     1.558459844790E-01 -4.906867408878E-01 -4.919355500083E-01
     45 T   8 O     1.685086665383E-01  4.995774642970E-01 -1.844443876082E-01
     46 T   8 O     4.894974523545E-01 -1.561182961929E-01  1.604233094581E-01
     47 T   8 O     4.938601523011E-01 -1.603776887905E-01  4.934624517180E-01
     48 T   8 O    -4.976906308162E-01 -1.689721602803E-01 -1.491825479527E-01
     49 T   8 O     4.962026531906E-01  1.650318491967E-01  1.697905306968E-01
     50 T   8 O     4.943799875030E-01  1.758765962922E-01 -4.946132805669E-01
     51 T   8 O     4.903008131734E-01  1.723096781989E-01 -1.724028299303E-01
     52 T   8 O    -4.818238048977E-01  4.895421021905E-01  1.622532385753E-01
     53 T   8 O    -4.890723358572E-01  4.823637365901E-01 -4.962822265263E-01
     54 T   8 O    -4.855199456590E-01  4.858236088871E-01 -1.664975149559E-01

 T = ATOM BELONGING TO THE ASYMMETRIC UNIT

 ****    1 SYMMOPS - TRANSLATORS IN FRACTIONAL UNITS
 **** MATRICES AND TRANSLATORS IN THE CRYSTALLOGRAPHIC REFERENCE FRAME
   V INV                    ROTATION MATRICES                   TRANSLATORS
   1   1  1.00  0.00  0.00  0.00  1.00  0.00  0.00  0.00  1.00  0.00  0.00  0.00

 DIRECT LATTICE VECTORS CARTESIAN COMPONENTS (ANGSTROM)
          X                    Y                    Z
  -0.847601986927E-02   0.698566925013E+01   0.705838479653E+01
   0.697963965077E+01  -0.135966121149E-01   0.705743919462E+01
   0.697326537150E+01   0.697151113346E+01  -0.735830539177E-03


 CARTESIAN COORDINATES - PRIMITIVE CELL
 *******************************************************************************
 *      ATOM          X(ANGSTROM)         Y(ANGSTROM)         Z(ANGSTROM)
 *******************************************************************************
    1    20 CA    2.484366130900E-02  2.563286460300E-02 -9.425989719000E-03
    2    20 CA    2.310734937445E+00  2.342344104810E+00  8.380314490000E-03
    3    20 CA   -2.343024929191E+00 -2.340256519876E+00  6.464356007000E-03
    4    20 CA    2.317768485796E+00 -2.989430083000E-02  2.348815497585E+00
    5    20 CA    4.669738014567E+00  2.286776365591E+00  2.313985460374E+00
    6    20 CA    5.384629641700E-02 -2.339220516978E+00  2.382605518844E+00
    7    20 CA   -2.343892748758E+00 -1.552726166400E-02 -2.356114008014E+00
    8    12 MG    2.943234525400E-02  2.307955950955E+00 -2.372659283077E+00
    9    12 MG   -4.707409604803E+00 -2.323407637777E+00 -2.334298598717E+00
   10    12 MG    5.535602097000E-03  2.390271848071E+00  2.402490904181E+00
   11    12 MG    2.313990584236E+00  4.619606617638E+00  2.370457038673E+00
   12    20 CA   -2.312664219815E+00  2.892646027400E-02  2.362731772176E+00
   13    20 CA    2.284565063291E+00  2.331416915091E+00  4.707915233721E+00
   14    20 CA    4.675778857461E+00  4.656307437418E+00  4.691276932090E+00
   15    12 MG    2.634775214900E-02  9.032314784900E-02  4.728373266042E+00
   16    20 CA   -2.304927499632E+00  2.385228781985E+00  2.222980713000E-02
   17    20 CA   -1.421782083500E-02  4.662811005862E+00 -4.242020311100E-02
   18    20 CA   -4.709490357485E+00 -1.627497779997E-04 -6.599269991999E-03
   19    20 CA    1.107782771700E-02 -2.375593958186E+00 -2.366568083761E+00
   20    20 CA    2.348158723009E+00 -3.298238278100E-02 -2.338793125292E+00
   21    20 CA   -2.301144599682E+00 -4.645133713840E+00 -2.330003869907E+00
   22    12 MG    2.341939821883E+00 -2.329111143037E+00  2.670360870200E-02
   23    12 MG    4.713380643951E+00 -4.042902936800E-02  1.170850626000E-03
   24    12 MG   -4.202328087000E-03 -4.686868398007E+00  3.481163933400E-02
   25    12 MG   -2.432769182222E+00 -2.301688794786E+00 -4.769251916950E+00
   26    20 CA   -1.577896229500E-02 -4.033068911300E-02 -4.716218959666E+00
   27    20 CA   -4.654694761749E+00 -4.601944938409E+00 -4.700475925074E+00
   28     8 O     3.047237952000E-03  6.950039126500E-02 -2.349318235592E+00
   29     8 O     2.206535040536E+00  2.400335523013E+00 -2.358915774342E+00
   30     8 O    -2.440440748946E+00 -2.315740554126E+00 -2.323608246996E+00
   31     8 O     2.430002539534E+00 -8.323958830900E-02  4.529244650000E-04
   32     8 O     4.756028065495E+00  2.236544367612E+00  9.432858477000E-03
   33     8 O     1.058542752840E-01 -2.412642406087E+00 -3.055116015000E-03
   34     8 O     4.648916469965E+00 -1.339934899740E-01  2.294178680996E+00
   35     8 O     6.981168623014E+00  2.297087811975E+00  2.356318451600E+00
   36     8 O     2.434815618252E+00 -2.330080362382E+00  2.334171751777E+00
   37     8 O    -3.282696050001E-04  2.324494722550E+00 -2.498864092800E-02
   38     8 O     2.318599462786E+00  4.656987260607E+00 -4.648822884000E-03
   39     8 O    -2.339139208316E+00  2.557494902800E-02  1.684785441200E-02
   40     8 O     2.229229356726E+00  2.437566221900E+00  2.358728643231E+00
   41     8 O     4.562517164673E+00  4.637636277290E+00  2.354927790907E+00
   42     8 O    -8.995524135000E-03  1.010784025250E-01  2.398919140454E+00
   43     8 O     4.745312521662E+00  2.309894416884E+00  4.666668225409E+00
   44     8 O     7.096370299919E+00  4.623740536335E+00  4.694094435307E+00
   45     8 O     2.199262734557E+00 -1.155028525010E-01  4.715272307069E+00
   46     8 O     2.487586817500E-02  4.539982868801E+00  2.353147948720E+00
   47     8 O     2.317480182456E+00  6.892303249117E+00  2.353636099059E+00
   48     8 O    -2.223911869633E+00  2.471236769311E+00  2.353091840914E+00
   49     8 O     2.331651442862E+00  4.647760317295E+00  4.666966567102E+00
   50     8 O     4.747560600365E+00  6.974492891950E+00  4.730390692606E+00
   51     8 O    -3.707021167000E-03  2.220828237742E+00  4.676923741230E+00
   52     8 O     4.543870285416E+00  4.744301657366E+00  7.112281205962E+00
   53     8 O     6.874952135738E+00  7.074287225712E+00  7.010206146466E+00
   54     8 O     2.225481625223E+00  2.426642661040E+00  7.060191286666E+00
 WARNING **** CRYSTA **** TESTGEOM  DIRECTIVE - GEOMETRY EDITING COMPLETE
 TTTTTTTTTTTTTTTTTTTTTTTTTTTTTT END         TELAPSE        0.01 TCPU        0.01
 EEEEEEEEEE TERMINATION  DATE 10 03 2023 TIME 10:33:02.0
Fri 10 Mar 2023 10:33:02 GMT
Contents of temporary directory:
total 8
-rw-r--r--  1 brunocamino  admin  4027 10 Mar 10:33 fort.34
SCF abnormal end - no wf written in fort.9
geometry input file fort.34 saved as /Users/brunocamino/Desktop/Imperial/cmsg_icl/solid-solutions/./data/crystal/testgeom_opt/CaMgO_testgeom_3933.gui
temporary directory /Users/brunocamino/crystal/tmp removed
