date Fri 10 Mar 2023 10:28:50 GMT
hostname MacBook-Pro-8
system Darwin MacBook-Pro-8 21.6.0 Darwin Kernel Version 21.6.0: Mon Aug 22 20:20:05 PDT 2022; root:xnu-8020.140.49~2/RELEASE_ARM64_T8101 arm64
user brunocamino
output data in /Users/brunocamino/Desktop/Imperial/cmsg_icl/solid-solutions/./data/crystal/testgeom_opt/CaMgO_testgeom_800.out
crystal executable in /Users/brunocamino/crystal
input data in /Users/brunocamino/Desktop/Imperial/cmsg_icl/solid-solutions/./data/crystal/testgeom_opt/CaMgO_testgeom_800.d12
temporary directory /Users/brunocamino/crystal/tmp
external geometry input from /Users/brunocamino/Desktop/Imperial/cmsg_icl/solid-solutions/./data/crystal/testgeom_opt/CaMgO_testgeom_800.gui
external geometry input saved in /Users/brunocamino/Desktop/Imperial/cmsg_icl/solid-solutions/./data/crystal/testgeom_opt/CaMgO_testgeom_800_inp.gui
Bulk 
EXTERNAL
EXTPRT
TESTGEOM
END

         
 *******************************************************************************
 *                                                                             *
 *                               CRYSTAL17                                     *
 *                      public : 1.0.1 - Feb 1st, 2017                         *
 *                       HTTP://WWW.CRYSTAL.UNITO.IT                           *
 *                                                                             *
 *                              MAIN AUTHORS                                   *
 *                                                                             *
 *  R. DOVESI(1,11), V.R. SAUNDERS(2), C. ROETTI(1,11), R. ORLANDO(1,11),      *
 *  C.M. ZICOVICH-WILSON(1,3), F. PASCALE(4), B. CIVALLERI(1,11),              *
 *  K. DOLL(5), N.M. HARRISON(2,6), I.J. BUSH(7), Ph. D'ARCO(8),               *
 *  M. LLUNELL(9), M. CAUSA'(10), Y. NOEL(8), L. MASCHIO(1,11), A. ERBA(1,11)  *
 *  M. RE'RAT(14), S. CASASSA(1,11)                                            *
 *                                                                             *
 *        CONTRIBUTIONS TO THE CODE HAVE ALSO BEEN GIVEN BY                    *
 *                                                                             *
 *  M. FERRABONE(1,11), M. DE LA PIERRE(1,11), M. FERRERO(1,11),               *
 *  J. BAIMA(1,11), E. ALBANESE(1,11), M.F. PEINTINGER(12), R. BAST(13),       *
 *  B. KIRTMAN(15), V. LACIVITA(1,11), R. DEMICHELIS(1,16)                     *
 *  G. BRANDEBURG(17), S. SALUSTRO(1,11), G. SANSONE(1,11)                     *
 *  M.T. RUGGIERO(18)                                                          *
 *                                                                             *
 * (1) THEORETICAL CHEMISTRY GROUP - UNIVERSITA' DI TORINO - TORINO (ITALY)    *

 * (2) COMPUTATIONAL SCIENCE & ENGINEERING DEPARTMENT - STFC DARESBURY (UK)    *
 * (3) UNIVERSIDAD AUTONOMA DEL ESTADO DE MORELOS - CUERNAVACA (MEXICO)        *
 * (4) UNIVERSITE' DE LORRAINE - NANCY (FRANCE)                                *
 * (5) UNIVERSITAET STUTTGART- STUTTGART (GERMANY)                             *
 * (6) IMPERIAL COLLEGE - LONDON (UK)                                          *
 * (7) OXFORD E-RESEARCH CENTRE - OXFORD (UK)                                  *
 * (8) UPMC - SORBONNE UNIVERSITES - PARIS (FRANCE)                            *
 * (9) UNIVERSIDAD DE BARCELONA - BARCELONA (SPAIN)                            *
 *(10) UNIVERSITA' DI NAPOLI "FEDERICO II" - NAPOLI (ITALY)                    *
 *(11) NIS - NANOSTRUCTURED INTERFACES AND SURFACES - TORINO (ITALY)           *
 *(12) MPI FUER CHEMISCHE ENERGIEKONVERSION - MUELHEIM AN DER RUHR (GERMANY)   *
 *(13) UNIVERSITY OF TROMSO - TROMSO (NORWAY)                                  *
 *(14) UNIVERSITE' DE PAU ET DES PAYS DE L'ADOUR - PAU (FRANCE)                *
 *(15) UNIVERSITY OF CALIFORNIA SANTA BARBARA - SANTA BARBARA (USA)            *
 *(16) CURTIN UNIVERSITY - PERTH (AUSTRALIA)                                   *
 *(17) UNIVERSITY COLLEGE LONDON - LONDON (UK)                                 *
 *(18) CAMBRIDGE UNIVERSITY - CAMBRIDGE (UK)                                   *
 *                                                                             *
 *******************************************************************************
 EEEEEEEEEE STARTING  DATE 10 03 2023 TIME 10:28:50.7
 Bulk                                                                            

 GEOMETRY INPUT FROM EXTERNAL FILE (FORTRAN UNIT 34)
 3D - CRYSTAL 

 *******************************************************************************
 LATTICE PARAMETERS  (ANGSTROMS AND DEGREES) - PRIMITIVE CELL
       A          B          C        ALPHA      BETA     GAMMA        VOLUME
    9.90084    9.90577    9.88547    60.14521  59.97810  59.98101    686.091855
 INFORMATION **** CHKGRP **** SPGR WITH NO INVERSION

 NUMBER OF IRREDUCIBLE ATOMS IN THE CELL:   54

 CARTESIAN COORDINATES (ANGSTROM) - IRREDUCIBLE ATOMS AND SYMMETRY RELATED

 AT.IRR.  AT  AT.N.          X                   Y                   Z
     1     1    20    2.419502851000E-03 -1.150580846400E-02 -2.548694503300E-02
     2     2    20    2.351604025996E+00  2.340362870291E+00 -4.164240397400E-02
     3     3    20   -2.314522571149E+00 -2.332191415466E+00 -5.084394066000E-02
     4     4    20    2.337223354108E+00 -4.738090302200E-02  2.343835377817E+00
     5     5    20    4.661099913361E+00  2.305392148319E+00  2.312881846535E+00
     6     6    20    6.381465972700E-02 -2.317971518229E+00  2.361885570897E+00
     7     7    20   -2.360567691321E+00 -5.781754281300E-02 -2.353593534126E+00
     8     8    20   -3.757186008000E-03  2.353932733661E+00 -2.343525884593E+00
     9     9    12   -4.641686454128E+00 -2.287063347174E+00 -2.316841412277E+00
    10    10    20   -7.088904271800E-02  2.360232439349E+00  2.389078706673E+00
    11    11    20    2.312435336159E+00  4.679952323223E+00  2.312924344773E+00
    12    12    20   -2.317233663331E+00  5.618808778500E-02  2.354722901226E+00
    13    13    20    2.285308245886E+00  2.316579998396E+00  4.725021277896E+00
    14    14    20    4.649988011463E+00  4.676652980743E+00  4.748177389496E+00
    15    15    12    2.157814596000E-03 -6.736750436400E-02  4.749708066275E+00
    16    16    12   -2.389084637308E+00  2.354952631995E+00 -3.319003686000E-03
    17    17    20   -4.049521049200E-02  4.693885667016E+00  1.285748543000E-03
    18    18    12   -4.594882075941E+00 -5.291410351000E-02 -6.490016685500E-02
    19    19    12    2.604660158000E-02 -2.335967672818E+00 -2.371530954352E+00
    20    20    20    2.352837963997E+00 -3.556794568000E-03 -2.311871112395E+00
    21    21    12   -2.265452473295E+00 -4.590122920228E+00 -2.310494749316E+00
    22    22    12    2.369472662952E+00 -2.321437449282E+00 -2.182287158700E-02
    23    23    12    4.640017545016E+00  7.745429141000E-03 -1.486112033800E-02
    24    24    20    3.242780341400E-02 -4.678028520638E+00 -5.516979350100E-02
    25    25    12   -2.396589541231E+00 -2.380724414233E+00 -4.682224111065E+00
    26    26    20   -3.159105893300E-02 -3.542402091200E-02 -4.709552584390E+00
    27    27    20   -4.604679572143E+00 -4.632120546044E+00 -4.702576605298E+00
    28    28     8   -9.031463035000E-03 -8.737214055800E-02 -2.341890976752E+00
    29    29     8    2.411935714721E+00  2.426582586308E+00 -2.337343401120E+00
    30    30     8   -2.341006126758E+00 -2.423012354194E+00 -2.411461787160E+00
    31    31     8    2.427335733929E+00 -9.021352789100E-02 -2.159735893000E-03
    32    32     8    4.659638111143E+00  2.272861665967E+00 -7.850525696400E-02
    33    33     8    9.760381873000E-02 -2.327216411345E+00 -2.240036398500E-02
    34    34     8    4.652339941726E+00 -7.889372791900E-02  2.248939201782E+00
    35    35     8    6.991795130827E+00  2.326702665147E+00  2.325465142926E+00
    36    36     8    2.425217516714E+00 -2.332554729098E+00  2.376159365732E+00
    37    37     8   -9.636200613600E-02  2.334827969394E+00 -2.939599464200E-02
    38    38     8    2.329851860020E+00  4.761450202334E+00 -6.904322746100E-02
    39    39     8   -2.429596428117E+00  7.672998486700E-02 -6.674863194000E-03
    40    40     8    2.325846738446E+00  2.328935186379E+00  2.328600553240E+00
    41    41     8    4.663917599504E+00  4.670268167785E+00  2.343287922622E+00
    42    42     8    7.949603101000E-03  1.422172539000E-03  2.390548246977E+00
    43    43     8    4.649953672444E+00  2.318415293883E+00  4.737718535203E+00
    44    44     8    7.061894981284E+00  4.740502960786E+00  4.685018883859E+00
    45    45     8    2.227700146434E+00 -1.090741734970E-01  4.791753819092E+00
    46    46     8   -5.834930253600E-02  4.667603431628E+00  2.408082123804E+00
    47    47     8    2.322679268921E+00  6.992315465704E+00  2.302561820410E+00
    48    48     8   -2.331540873435E+00  2.433154429065E+00  2.318769669841E+00
    49    49     8    2.251255194706E+00  4.659612775681E+00  4.741867299773E+00
    50    50     8    4.759573853702E+00  7.074400774359E+00  4.783123185415E+00
    51    51     8   -1.078076497200E-01  2.394701080926E+00  4.672160609431E+00
    52    52     8    4.531675805682E+00  4.637088457371E+00  7.095046274137E+00
    53    53     8    6.936605670421E+00  6.990515317701E+00  6.910575218174E+00
    54    54     8    2.449145407157E+00  2.305684495857E+00  7.003931295102E+00

 SYMMETRY CHANGED DURING OLD RUN :  INFORMATION ON SPACE GROUP LOST 
 NUMBER OF SYMMETRY OPERATORS         :    1
 *******************************************************************************
 LATTICE PARAMETERS (ANGSTROMS AND DEGREES) - BOHR = 0.5291772083 ANGSTROM
 PRIMITIVE CELL - CENTRING CODE 1/0 VOLUME=   686.091855 - DENSITY  3.309 g/cm^3
         A              B              C           ALPHA      BETA       GAMMA 
     9.90083797     9.90577101     9.88546868    60.145207  59.978100  59.981011
 *******************************************************************************
 ATOMS IN THE ASYMMETRIC UNIT   54 - ATOMS IN THE UNIT CELL:   54
     ATOM                 X/A                 Y/B                 Z/C    
 *******************************************************************************
      1 T  20 CA   -2.815304243928E-03 -8.220115946960E-04  1.169503172147E-03
      2 T  20 CA   -4.296270894676E-03 -1.603737875545E-03  3.385675516973E-01
      3 T  20 CA   -4.382991046212E-03 -2.912903749570E-03 -3.287308310612E-01
      4 T  20 CA   -3.237921974816E-03  3.373396355652E-01 -3.154403046043E-03
      5 T  20 CA   -3.899885861809E-03  3.336306672017E-01  3.335509815699E-01
      6 T  20 CA   -1.245621941970E-03  3.378823099753E-01 -3.294547870835E-01
      7 T  20 CA   -3.295799269203E-03 -3.322081259623E-01 -5.335182235126E-03
      8 T  20 CA    8.244372188146E-04 -3.348439567376E-01  3.350155022283E-01
      9 T  12 MG    3.535295495990E-03 -3.338306920135E-01 -3.305688959924E-01
     10 T  20 CA    3.442097027455E-01 -3.119720901663E-03 -6.916249205557E-03
     11 T  20 CA    3.337036478407E-01 -3.442487539564E-03  3.349107558104E-01
     12 T  20 CA    3.381328124716E-01 -1.990297422438E-03 -3.299293076289E-01
     13 T  20 CA    3.393156548348E-01  3.347486477894E-01 -7.882280637728E-03
     14 T  20 CA    3.401196266385E-01  3.372891446639E-01  3.284075847927E-01
     15 T  12 MG    3.343895665179E-01  3.431438293798E-01 -3.434500232702E-01
     16 T  12 MG    3.388576089435E-01 -3.388049667530E-01 -2.696123261282E-03
     17 T  20 CA    3.379793182959E-01 -3.372294320893E-01  3.322545986445E-01
     18 T  12 MG    3.205233845859E-01 -3.293184613200E-01 -3.282780599533E-01
     19 T  12 MG   -3.380141039452E-01 -5.652202832078E-04  4.185588966445E-03
     20 T  20 CA   -3.338638752246E-01  3.836799817948E-03  3.331820676959E-01
     21 T  12 MG   -3.304825973347E-01  5.739807595016E-04 -3.253029078340E-01
     22 T  12 MG   -3.368580655472E-01  3.332249748342E-01  5.478405606999E-03
     23 T  12 MG   -3.326767729716E-01  3.300839516756E-01  3.339743536306E-01
     24 T  20 CA   -3.401199623490E-01  3.316862879665E-01 -3.278564033620E-01
     25 T  12 MG   -3.328693626752E-01 -3.350862826518E-01 -7.722733910577E-03
     26 T  20 CA   -3.367494487144E-01 -3.350651120082E-01  3.311358993365E-01
     27 T  20 CA   -3.369269694805E-01 -3.339761816227E-01 -3.252342450910E-01
     28 T   8 O    -1.729097659609E-01 -1.611684716557E-01  1.601580856161E-01
     29 T   8 O    -1.664827201473E-01 -1.668928525572E-01 -4.872023391290E-01
     30 T   8 O    -1.776275103312E-01 -1.664166246395E-01 -1.687333731960E-01
     31 T   8 O    -1.803597351135E-01  1.797929712599E-01  1.675791335166E-01
     32 T   8 O    -1.769740057371E-01  1.655717676088E-01 -4.983012985586E-01
     33 T   8 O    -1.746740949843E-01  1.711899289830E-01 -1.576254825105E-01
     34 T   8 O    -1.780005941233E-01  4.983252640186E-01  1.671938979789E-01
     35 T   8 O    -1.683288781472E-01  4.996192057426E-01 -4.988785087391E-01
     36 T   8 O    -1.703137472299E-01 -4.912563062904E-01 -1.623688969164E-01
     37 T   8 O     1.714277220105E-01 -1.753314760329E-01  1.619526605903E-01
     38 T   8 O     1.680889310784E-01 -1.776053692677E-01 -4.881170316369E-01
     39 T   8 O     1.789280882963E-01 -1.796229567585E-01 -1.680739225222E-01
     40 T   8 O     1.660785530019E-01  1.661357770043E-01  1.668387613174E-01
     41 T   8 O     1.668449098859E-01  1.675063022659E-01 -4.995117304001E-01
     42 T   8 O     1.703296335437E-01  1.706793344060E-01 -1.698449877193E-01
     43 T   8 O     1.710745024566E-01 -4.954401972203E-01  1.607209691208E-01
     44 T   8 O     1.675012767633E-01 -4.993406575271E-01 -4.897639050850E-01
     45 T   8 O     1.750958716537E-01 -4.917969477072E-01 -1.900138907235E-01
     46 T   8 O    -4.906601254008E-01 -1.652639232765E-01  1.574236384357E-01
     47 T   8 O     4.972563406972E-01 -1.681974041849E-01 -4.984626037168E-01
     48 T   8 O    -4.937747774528E-01 -1.749251764651E-01 -1.586217891328E-01
     49 T   8 O    -4.898277716513E-01  1.665793234959E-01  1.558211220719E-01
     50 T   8 O    -4.941085461006E-01  1.767783705755E-01 -4.949834459291E-01
     51 T   8 O    -4.875683645079E-01  1.543458754675E-01 -1.699493754159E-01
     52 T   8 O    -4.865578105144E-01  4.987527101925E-01  1.497068159938E-01
     53 T   8 O     4.960561244294E-01  4.898605042667E-01 -4.967850247419E-01
     54 T   8 O     4.896303914667E-01 -4.904996108089E-01 -1.594778381469E-01

 T = ATOM BELONGING TO THE ASYMMETRIC UNIT
 *******************************************************************************
 * GEOMETRY EDITING - INPUT COORDINATES ARE GIVEN IN ANGSTROM         
 *******************************************************************************

 GCALCO - MAX INDICES DIRECT LATTICE VECTOR    15    14    15
 NO.OF VECTORS CREATED 6999 STARS 3500 RMAX   198.09338 BOHR

 GEOMETRY FOR WAVE FUNCTION - DIMENSIONALITY OF THE SYSTEM    3
 (NON PERIODIC DIRECTION: LATTICE PARAMETER FORMALLY SET TO 500)
 *******************************************************************************
 LATTICE PARAMETERS (ANGSTROMS AND DEGREES) - BOHR = 0.5291772083 ANGSTROM
 PRIMITIVE CELL - CENTRING CODE 1/0 VOLUME=   686.091855 - DENSITY  3.309 g/cm^3
         A              B              C           ALPHA      BETA       GAMMA 
     9.90083797     9.90577101     9.88546868    60.145207  59.978100  59.981011
 *******************************************************************************
 ATOMS IN THE ASYMMETRIC UNIT   54 - ATOMS IN THE UNIT CELL:   54
     ATOM                 X/A                 Y/B                 Z/C    
 *******************************************************************************
      1 T  20 CA   -2.815304243928E-03 -8.220115946960E-04  1.169503172147E-03
      2 T  20 CA   -4.296270894676E-03 -1.603737875545E-03  3.385675516973E-01
      3 T  20 CA   -4.382991046212E-03 -2.912903749570E-03 -3.287308310612E-01
      4 T  20 CA   -3.237921974815E-03  3.373396355652E-01 -3.154403046043E-03
      5 T  20 CA   -3.899885861809E-03  3.336306672017E-01  3.335509815699E-01
      6 T  20 CA   -1.245621941970E-03  3.378823099753E-01 -3.294547870835E-01
      7 T  20 CA   -3.295799269203E-03 -3.322081259623E-01 -5.335182235126E-03
      8 T  20 CA    8.244372188146E-04 -3.348439567376E-01  3.350155022283E-01
      9 T  12 MG    3.535295495990E-03 -3.338306920135E-01 -3.305688959924E-01
     10 T  20 CA    3.442097027455E-01 -3.119720901663E-03 -6.916249205557E-03
     11 T  20 CA    3.337036478407E-01 -3.442487539564E-03  3.349107558104E-01
     12 T  20 CA    3.381328124716E-01 -1.990297422438E-03 -3.299293076289E-01
     13 T  20 CA    3.393156548348E-01  3.347486477894E-01 -7.882280637728E-03
     14 T  20 CA    3.401196266385E-01  3.372891446639E-01  3.284075847927E-01
     15 T  12 MG    3.343895665179E-01  3.431438293798E-01 -3.434500232702E-01
     16 T  12 MG    3.388576089435E-01 -3.388049667530E-01 -2.696123261282E-03
     17 T  20 CA    3.379793182959E-01 -3.372294320893E-01  3.322545986445E-01
     18 T  12 MG    3.205233845859E-01 -3.293184613200E-01 -3.282780599533E-01
     19 T  12 MG   -3.380141039452E-01 -5.652202832077E-04  4.185588966445E-03
     20 T  20 CA   -3.338638752246E-01  3.836799817948E-03  3.331820676959E-01
     21 T  12 MG   -3.304825973347E-01  5.739807595017E-04 -3.253029078340E-01
     22 T  12 MG   -3.368580655472E-01  3.332249748342E-01  5.478405606999E-03
     23 T  12 MG   -3.326767729716E-01  3.300839516756E-01  3.339743536306E-01
     24 T  20 CA   -3.401199623490E-01  3.316862879665E-01 -3.278564033620E-01
     25 T  12 MG   -3.328693626752E-01 -3.350862826518E-01 -7.722733910577E-03
     26 T  20 CA   -3.367494487144E-01 -3.350651120082E-01  3.311358993365E-01
     27 T  20 CA   -3.369269694805E-01 -3.339761816227E-01 -3.252342450910E-01
     28 T   8 O    -1.729097659609E-01 -1.611684716557E-01  1.601580856161E-01
     29 T   8 O    -1.664827201473E-01 -1.668928525572E-01 -4.872023391290E-01
     30 T   8 O    -1.776275103312E-01 -1.664166246395E-01 -1.687333731960E-01
     31 T   8 O    -1.803597351135E-01  1.797929712599E-01  1.675791335166E-01
     32 T   8 O    -1.769740057371E-01  1.655717676088E-01 -4.983012985586E-01
     33 T   8 O    -1.746740949843E-01  1.711899289830E-01 -1.576254825105E-01
     34 T   8 O    -1.780005941233E-01  4.983252640186E-01  1.671938979789E-01
     35 T   8 O    -1.683288781472E-01  4.996192057426E-01 -4.988785087391E-01
     36 T   8 O    -1.703137472299E-01 -4.912563062904E-01 -1.623688969164E-01
     37 T   8 O     1.714277220105E-01 -1.753314760329E-01  1.619526605903E-01
     38 T   8 O     1.680889310784E-01 -1.776053692677E-01 -4.881170316369E-01
     39 T   8 O     1.789280882963E-01 -1.796229567585E-01 -1.680739225222E-01
     40 T   8 O     1.660785530019E-01  1.661357770043E-01  1.668387613174E-01
     41 T   8 O     1.668449098859E-01  1.675063022659E-01 -4.995117304001E-01
     42 T   8 O     1.703296335437E-01  1.706793344060E-01 -1.698449877193E-01
     43 T   8 O     1.710745024566E-01 -4.954401972203E-01  1.607209691208E-01
     44 T   8 O     1.675012767633E-01 -4.993406575271E-01 -4.897639050850E-01
     45 T   8 O     1.750958716537E-01 -4.917969477072E-01 -1.900138907235E-01
     46 T   8 O    -4.906601254008E-01 -1.652639232765E-01  1.574236384357E-01
     47 T   8 O     4.972563406972E-01 -1.681974041849E-01 -4.984626037168E-01
     48 T   8 O    -4.937747774528E-01 -1.749251764651E-01 -1.586217891328E-01
     49 T   8 O    -4.898277716513E-01  1.665793234959E-01  1.558211220719E-01
     50 T   8 O    -4.941085461006E-01  1.767783705755E-01 -4.949834459291E-01
     51 T   8 O    -4.875683645079E-01  1.543458754675E-01 -1.699493754159E-01
     52 T   8 O    -4.865578105144E-01  4.987527101925E-01  1.497068159938E-01
     53 T   8 O     4.960561244294E-01  4.898605042667E-01 -4.967850247419E-01
     54 T   8 O     4.896303914667E-01 -4.904996108089E-01 -1.594778381469E-01

 T = ATOM BELONGING TO THE ASYMMETRIC UNIT

 ****    1 SYMMOPS - TRANSLATORS IN FRACTIONAL UNITS
 **** MATRICES AND TRANSLATORS IN THE CRYSTALLOGRAPHIC REFERENCE FRAME
   V INV                    ROTATION MATRICES                   TRANSLATORS
   1   1  1.00  0.00  0.00  0.00  1.00  0.00  0.00  0.00  1.00  0.00  0.00  0.00

 DIRECT LATTICE VECTORS CARTESIAN COMPONENTS (ANGSTROM)
          X                    Y                    Z
  -0.233414805555E-02   0.699756796984E+01   0.700432934910E+01
   0.699363381217E+01  -0.782118190843E-02   0.701522089724E+01
   0.697884348766E+01   0.700130228926E+01  -0.884113657725E-03


 CARTESIAN COORDINATES - PRIMITIVE CELL
 *******************************************************************************
 *      ATOM          X(ANGSTROM)         Y(ANGSTROM)         Z(ANGSTROM)
 *******************************************************************************
    1    20 CA    2.419502851000E-03 -1.150580846400E-02 -2.548694503300E-02
    2    20 CA    2.351604025996E+00  2.340362870291E+00 -4.164240397400E-02
    3    20 CA   -2.314522571149E+00 -2.332191415466E+00 -5.084394066000E-02
    4    20 CA    2.337223354108E+00 -4.738090302200E-02  2.343835377817E+00
    5    20 CA    4.661099913361E+00  2.305392148319E+00  2.312881846535E+00
    6    20 CA    6.381465972700E-02 -2.317971518229E+00  2.361885570897E+00
    7    20 CA   -2.360567691321E+00 -5.781754281300E-02 -2.353593534126E+00
    8    20 CA   -3.757186008001E-03  2.353932733661E+00 -2.343525884593E+00
    9    12 MG   -4.641686454128E+00 -2.287063347174E+00 -2.316841412277E+00
   10    20 CA   -7.088904271800E-02  2.360232439349E+00  2.389078706673E+00
   11    20 CA    2.312435336159E+00  4.679952323223E+00  2.312924344773E+00
   12    20 CA   -2.317233663331E+00  5.618808778500E-02  2.354722901226E+00
   13    20 CA    2.285308245886E+00  2.316579998396E+00  4.725021277896E+00
   14    20 CA    4.649988011463E+00  4.676652980743E+00  4.748177389496E+00
   15    12 MG    2.157814596000E-03 -6.736750436400E-02  4.749708066275E+00
   16    12 MG   -2.389084637308E+00  2.354952631995E+00 -3.319003686001E-03
   17    20 CA   -4.049521049200E-02  4.693885667016E+00  1.285748543000E-03
   18    12 MG   -4.594882075941E+00 -5.291410351000E-02 -6.490016685500E-02
   19    12 MG    2.604660158000E-02 -2.335967672818E+00 -2.371530954352E+00
   20    20 CA    2.352837963997E+00 -3.556794568000E-03 -2.311871112395E+00
   21    12 MG   -2.265452473295E+00 -4.590122920228E+00 -2.310494749316E+00
   22    12 MG    2.369472662952E+00 -2.321437449282E+00 -2.182287158700E-02
   23    12 MG    4.640017545016E+00  7.745429141000E-03 -1.486112033800E-02
   24    20 CA    3.242780341400E-02 -4.678028520638E+00 -5.516979350100E-02
   25    12 MG   -2.396589541231E+00 -2.380724414233E+00 -4.682224111065E+00
   26    20 CA   -3.159105893300E-02 -3.542402091200E-02 -4.709552584390E+00
   27    20 CA   -4.604679572143E+00 -4.632120546044E+00 -4.702576605298E+00
   28     8 O    -9.031463035000E-03 -8.737214055800E-02 -2.341890976752E+00
   29     8 O     2.411935714721E+00  2.426582586308E+00 -2.337343401120E+00
   30     8 O    -2.341006126758E+00 -2.423012354194E+00 -2.411461787160E+00
   31     8 O     2.427335733929E+00 -9.021352789100E-02 -2.159735893000E-03
   32     8 O     4.659638111143E+00  2.272861665967E+00 -7.850525696400E-02
   33     8 O     9.760381873000E-02 -2.327216411345E+00 -2.240036398500E-02
   34     8 O     4.652339941726E+00 -7.889372791900E-02  2.248939201782E+00
   35     8 O     6.991795130827E+00  2.326702665147E+00  2.325465142926E+00
   36     8 O     2.425217516714E+00 -2.332554729098E+00  2.376159365732E+00
   37     8 O    -9.636200613600E-02  2.334827969394E+00 -2.939599464200E-02
   38     8 O     2.329851860020E+00  4.761450202334E+00 -6.904322746100E-02
   39     8 O    -2.429596428117E+00  7.672998486700E-02 -6.674863194000E-03
   40     8 O     2.325846738446E+00  2.328935186379E+00  2.328600553240E+00
   41     8 O     4.663917599504E+00  4.670268167785E+00  2.343287922622E+00
   42     8 O     7.949603101000E-03  1.422172539000E-03  2.390548246977E+00
   43     8 O     4.649953672444E+00  2.318415293883E+00  4.737718535203E+00
   44     8 O     7.061894981284E+00  4.740502960786E+00  4.685018883859E+00
   45     8 O     2.227700146434E+00 -1.090741734970E-01  4.791753819092E+00
   46     8 O    -5.834930253600E-02  4.667603431628E+00  2.408082123804E+00
   47     8 O     2.322679268921E+00  6.992315465704E+00  2.302561820410E+00
   48     8 O    -2.331540873435E+00  2.433154429065E+00  2.318769669841E+00
   49     8 O     2.251255194706E+00  4.659612775681E+00  4.741867299773E+00
   50     8 O     4.759573853702E+00  7.074400774359E+00  4.783123185415E+00
   51     8 O    -1.078076497200E-01  2.394701080926E+00  4.672160609431E+00
   52     8 O     4.531675805682E+00  4.637088457371E+00  7.095046274137E+00
   53     8 O     6.936605670421E+00  6.990515317701E+00  6.910575218174E+00
   54     8 O     2.449145407157E+00  2.305684495857E+00  7.003931295102E+00
 WARNING **** CRYSTA **** TESTGEOM  DIRECTIVE - GEOMETRY EDITING COMPLETE
 TTTTTTTTTTTTTTTTTTTTTTTTTTTTTT END         TELAPSE        0.01 TCPU        0.01
 EEEEEEEEEE TERMINATION  DATE 10 03 2023 TIME 10:28:50.7
Fri 10 Mar 2023 10:28:50 GMT
Contents of temporary directory:
total 8
-rw-r--r--  1 brunocamino  admin  4027 10 Mar 10:28 fort.34
SCF abnormal end - no wf written in fort.9
geometry input file fort.34 saved as /Users/brunocamino/Desktop/Imperial/cmsg_icl/solid-solutions/./data/crystal/testgeom_opt/CaMgO_testgeom_800.gui
temporary directory /Users/brunocamino/crystal/tmp removed
