date Fri 10 Mar 2023 10:30:07 GMT
hostname MacBook-Pro-8
system Darwin MacBook-Pro-8 21.6.0 Darwin Kernel Version 21.6.0: Mon Aug 22 20:20:05 PDT 2022; root:xnu-8020.140.49~2/RELEASE_ARM64_T8101 arm64
user brunocamino
output data in /Users/brunocamino/Desktop/Imperial/cmsg_icl/solid-solutions/./data/crystal/testgeom_opt/CaMgO_testgeom_1743.out
crystal executable in /Users/brunocamino/crystal
input data in /Users/brunocamino/Desktop/Imperial/cmsg_icl/solid-solutions/./data/crystal/testgeom_opt/CaMgO_testgeom_1743.d12
temporary directory /Users/brunocamino/crystal/tmp
external geometry input from /Users/brunocamino/Desktop/Imperial/cmsg_icl/solid-solutions/./data/crystal/testgeom_opt/CaMgO_testgeom_1743.gui
external geometry input saved in /Users/brunocamino/Desktop/Imperial/cmsg_icl/solid-solutions/./data/crystal/testgeom_opt/CaMgO_testgeom_1743_inp.gui
Bulk 
EXTERNAL
EXTPRT
TESTGEOM
END

         
 *******************************************************************************
 *                                                                             *
 *                               CRYSTAL17                                     *
 *                      public : 1.0.1 - Feb 1st, 2017                         *
 *                       HTTP://WWW.CRYSTAL.UNITO.IT                           *
 *                                                                             *
 *                              MAIN AUTHORS                                   *
 *                                                                             *
 *  R. DOVESI(1,11), V.R. SAUNDERS(2), C. ROETTI(1,11), R. ORLANDO(1,11),      *
 *  C.M. ZICOVICH-WILSON(1,3), F. PASCALE(4), B. CIVALLERI(1,11),              *
 *  K. DOLL(5), N.M. HARRISON(2,6), I.J. BUSH(7), Ph. D'ARCO(8),               *
 *  M. LLUNELL(9), M. CAUSA'(10), Y. NOEL(8), L. MASCHIO(1,11), A. ERBA(1,11)  *
 *  M. RE'RAT(14), S. CASASSA(1,11)                                            *
 *                                                                             *
 *        CONTRIBUTIONS TO THE CODE HAVE ALSO BEEN GIVEN BY                    *
 *                                                                             *
 *  M. FERRABONE(1,11), M. DE LA PIERRE(1,11), M. FERRERO(1,11),               *
 *  J. BAIMA(1,11), E. ALBANESE(1,11), M.F. PEINTINGER(12), R. BAST(13),       *
 *  B. KIRTMAN(15), V. LACIVITA(1,11), R. DEMICHELIS(1,16)                     *
 *  G. BRANDEBURG(17), S. SALUSTRO(1,11), G. SANSONE(1,11)                     *
 *  M.T. RUGGIERO(18)                                                          *
 *                                                                             *
 * (1) THEORETICAL CHEMISTRY GROUP - UNIVERSITA' DI TORINO - TORINO (ITALY)    *

 * (2) COMPUTATIONAL SCIENCE & ENGINEERING DEPARTMENT - STFC DARESBURY (UK)    *
 * (3) UNIVERSIDAD AUTONOMA DEL ESTADO DE MORELOS - CUERNAVACA (MEXICO)        *
 * (4) UNIVERSITE' DE LORRAINE - NANCY (FRANCE)                                *
 * (5) UNIVERSITAET STUTTGART- STUTTGART (GERMANY)                             *
 * (6) IMPERIAL COLLEGE - LONDON (UK)                                          *
 * (7) OXFORD E-RESEARCH CENTRE - OXFORD (UK)                                  *
 * (8) UPMC - SORBONNE UNIVERSITES - PARIS (FRANCE)                            *
 * (9) UNIVERSIDAD DE BARCELONA - BARCELONA (SPAIN)                            *
 *(10) UNIVERSITA' DI NAPOLI "FEDERICO II" - NAPOLI (ITALY)                    *
 *(11) NIS - NANOSTRUCTURED INTERFACES AND SURFACES - TORINO (ITALY)           *
 *(12) MPI FUER CHEMISCHE ENERGIEKONVERSION - MUELHEIM AN DER RUHR (GERMANY)   *
 *(13) UNIVERSITY OF TROMSO - TROMSO (NORWAY)                                  *
 *(14) UNIVERSITE' DE PAU ET DES PAYS DE L'ADOUR - PAU (FRANCE)                *
 *(15) UNIVERSITY OF CALIFORNIA SANTA BARBARA - SANTA BARBARA (USA)            *
 *(16) CURTIN UNIVERSITY - PERTH (AUSTRALIA)                                   *
 *(17) UNIVERSITY COLLEGE LONDON - LONDON (UK)                                 *
 *(18) CAMBRIDGE UNIVERSITY - CAMBRIDGE (UK)                                   *
 *                                                                             *
 *******************************************************************************
 EEEEEEEEEE STARTING  DATE 10 03 2023 TIME 10:30:07.9
 Bulk                                                                            

 GEOMETRY INPUT FROM EXTERNAL FILE (FORTRAN UNIT 34)
 3D - CRYSTAL 

 *******************************************************************************
 LATTICE PARAMETERS  (ANGSTROMS AND DEGREES) - PRIMITIVE CELL
       A          B          C        ALPHA      BETA     GAMMA        VOLUME
    9.91611    9.92999    9.90153    60.16398  59.93838  59.99270    689.898976
 INFORMATION **** CHKGRP **** SPGR WITH NO INVERSION

 NUMBER OF IRREDUCIBLE ATOMS IN THE CELL:   54

 CARTESIAN COORDINATES (ANGSTROM) - IRREDUCIBLE ATOMS AND SYMMETRY RELATED

 AT.IRR.  AT  AT.N.          X                   Y                   Z
     1     1    20    1.556938158900E-02 -2.707033978100E-02 -8.620764977000E-03
     2     2    20    2.351875252136E+00  2.355556188567E+00 -3.448907300900E-02
     3     3    20   -2.330895933701E+00 -2.359392941704E+00 -2.256250383300E-02
     4     4    20    2.332328498499E+00 -4.006894083000E-02  2.379803913835E+00
     5     5    20    4.689830528163E+00  2.321632343634E+00  2.353073850972E+00
     6     6    20    5.314330005700E-02 -2.401798364894E+00  2.343795595538E+00
     7     7    20   -2.372790081264E+00 -1.196719212000E-03 -2.329255866385E+00
     8     8    20    1.228339034000E-02  2.363656762218E+00 -2.391967584727E+00
     9     9    12   -4.635228861708E+00 -2.399193541349E+00 -2.308385712097E+00
    10    10    20    4.455256540000E-04  2.335499894892E+00  2.354461433165E+00
    11    11    20    2.328596972856E+00  4.712060232888E+00  2.336521344235E+00
    12    12    20   -2.369930174779E+00  2.004817209900E-02  2.373131137832E+00
    13    13    12    2.346620473734E+00  2.361119343733E+00  4.729672705824E+00
    14    14    12    4.577189468518E+00  4.604798169872E+00  4.721194321485E+00
    15    15    20    3.392958285700E-02  1.259016969600E-02  4.725972128990E+00
    16    16    20   -2.421458281416E+00  2.358758594899E+00 -3.564321740000E-04
    17    17    20   -8.618263128000E-03  4.736319969685E+00  1.659925237100E-02
    18    18    12   -4.702614518949E+00  6.532783287800E-02 -1.500407290000E-04
    19    19    20    2.655349504300E-02 -2.372389570333E+00 -2.316078198244E+00
    20    20    20    2.345647919005E+00  1.122636797800E-02 -2.376604826308E+00
    21    21    12   -2.393612637658E+00 -4.600523223769E+00 -2.311943649409E+00
    22    22    12    2.368980270834E+00 -2.428037403302E+00 -4.992104962800E-02
    23    23    20    4.699145693293E+00  4.142072400000E-03 -4.034942801800E-02
    24    24    12    1.073202755540E-01 -4.742658932751E+00 -2.372492562600E-02
    25    25    20   -2.384302890802E+00 -2.354246618988E+00 -4.653615783208E+00
    26    26    12    5.267655769000E-02  1.107629233660E-01 -4.781997829187E+00
    27    27    12   -4.690929835227E+00 -4.665074962970E+00 -4.718831710307E+00
    28    28     8    7.077992520000E-04  2.227862465000E-03 -2.357898235319E+00
    29    29     8    2.411307366586E+00  2.435381213418E+00 -2.407134176010E+00
    30    30     8   -2.431571007677E+00 -2.433321509139E+00 -2.339180410519E+00
    31    31     8    2.337179650458E+00 -4.814642722200E-02 -1.327041567300E-02
    32    32     8    4.729090842383E+00  2.325768504315E+00 -5.998471469800E-02
    33    33     8    9.503597722300E-02 -2.424438899659E+00 -7.285969291000E-03
    34    34     8    4.719042883155E+00 -1.262525462200E-02  2.365948168676E+00
    35    35     8    7.096421142726E+00  2.221509221939E+00  2.268508765606E+00
    36    36     8    2.333478435564E+00 -2.457868151182E+00  2.367799726948E+00
    37    37     8   -9.415410733000E-03  2.352032035763E+00  1.327093495000E-03
    38    38     8    2.324686569400E+00  4.756750632673E+00 -6.404985671900E-02
    39    39     8   -2.421584038274E+00  4.728956213000E-03 -2.085139874900E-02
    40    40     8    2.339286253466E+00  2.341655132277E+00  2.392820794722E+00
    41    41     8    4.671943080156E+00  4.670549160355E+00  2.367126411401E+00
    42    42     8    1.047529263900E-02 -1.538071827600E-02  2.345735574959E+00
    43    43     8    4.577966819728E+00  2.403536973809E+00  4.689374124871E+00
    44    44     8    7.013422738245E+00  4.648635835502E+00  4.698908852708E+00
    45    45     8    2.342878745196E+00 -8.349132344000E-03  4.786195341838E+00
    46    46     8   -3.980808286000E-03  4.730275849258E+00  2.364296992050E+00
    47    47     8    2.243028907691E+00  7.119526071437E+00  2.264701880712E+00
    48    48     8   -2.423149127598E+00  2.332066940211E+00  2.356499265476E+00
    49    49     8    2.436637796533E+00  4.587569318827E+00  4.763385356290E+00
    50    50     8    4.668790985729E+00  7.021257866134E+00  4.672835039500E+00
    51    51     8    3.597972332700E-02  2.338276030176E+00  4.734766598931E+00
    52    52     8    4.553124790772E+00  4.666169715634E+00  6.967820962500E+00
    53    53     8    7.112411832366E+00  7.113436899032E+00  7.087740458669E+00
    54    54     8    2.258648005492E+00  2.339615456085E+00  7.029314384006E+00

 SYMMETRY CHANGED DURING OLD RUN :  INFORMATION ON SPACE GROUP LOST 
 NUMBER OF SYMMETRY OPERATORS         :    1
 *******************************************************************************
 LATTICE PARAMETERS (ANGSTROMS AND DEGREES) - BOHR = 0.5291772083 ANGSTROM
 PRIMITIVE CELL - CENTRING CODE 1/0 VOLUME=   689.898976 - DENSITY  3.290 g/cm^3
         A              B              C           ALPHA      BETA       GAMMA 
     9.91610993     9.92998871     9.90152907    60.163981  59.938377  59.992697
 *******************************************************************************
 ATOMS IN THE ASYMMETRIC UNIT   54 - ATOMS IN THE UNIT CELL:   54
     ATOM                 X/A                 Y/B                 Z/C    
 *******************************************************************************
      1 T  20 CA   -3.657613720570E-03  2.421954182087E-03 -1.977865034050E-04
      2 T  20 CA   -2.553311629299E-03 -2.457028603351E-03  3.386822412112E-01
      3 T  20 CA   -3.292315162422E-03  1.732810853659E-04 -3.333887876584E-01
      4 T  20 CA    4.343948657261E-04  3.379406987418E-01 -5.237211560821E-03
      5 T  20 CA   -1.528836620760E-03  3.359983291818E-01  3.337330881263E-01
      6 T  20 CA   -7.678696935920E-03  3.410084956186E-01 -3.341295520790E-01
      7 T  20 CA    3.123369311317E-03 -3.342988138189E-01 -4.200168525456E-03
      8 T  20 CA   -3.153847994117E-03 -3.370564127237E-01  3.395328388646E-01
      9 T  12 MG   -4.710591601013E-03 -3.234205251689E-01 -3.385258750026E-01
     10 T  20 CA    3.345681358760E-01  1.113692956119E-03 -1.378663902855E-03
     11 T  20 CA    3.363885881196E-01 -3.351748697192E-03  3.359205106101E-01
     12 T  20 CA    3.401726888224E-01 -1.722256343196E-03 -3.374044102483E-01
     13 T  12 MG    3.383683438786E-01  3.350429901711E-01 -6.197694755568E-04
     14 T  12 MG    3.383625378779E-01  3.337491728566E-01  3.195526978154E-01
     15 T  20 CA    3.358966327909E-01  3.370795717958E-01 -3.332740817184E-01
     16 T  20 CA    3.411185403681E-01 -3.402373552980E-01 -5.536091669656E-03
     17 T  20 CA    3.394516855462E-01 -3.362644190177E-01  3.354169874191E-01
     18 T  12 MG    3.406008937926E-01 -3.395957326149E-01 -3.322862761870E-01
     19 T  20 CA   -3.363863274266E-01  6.158066738728E-03 -2.047094622100E-03
     20 T  20 CA   -3.364564266738E-01 -2.477993623101E-03  3.381386519848E-01
     21 T  12 MG   -3.220376456932E-01 -7.465929770934E-03 -3.343882621903E-01
     22 T  12 MG   -3.458980721954E-01  3.378566530294E-01  4.244127587846E-04
     23 T  20 CA   -3.382921565239E-01  3.315326465903E-01  3.398683775194E-01
     24 T  12 MG   -3.474636080909E-01  3.432392339527E-01 -3.282886699898E-01
     25 T  20 CA   -3.297560796967E-01 -3.328153745611E-01 -7.007959060644E-03
     26 T  12 MG   -3.372900628303E-01 -3.436615329855E-01  3.522523812171E-01
     27 T  12 MG   -3.343653652213E-01 -3.373958109992E-01 -3.321622008744E-01
     28 T   8 O    -1.682399877322E-01 -1.675259411132E-01  1.681477468059E-01
     29 T   8 O    -1.705095717393E-01 -1.723658760678E-01 -4.823872473595E-01
     30 T   8 O    -1.667713720482E-01 -1.662265719352E-01 -1.808675800941E-01
     31 T   8 O    -1.713477471995E-01  1.689451322153E-01  1.649790650554E-01
     32 T   8 O    -1.763252854464E-01  1.671659924996E-01 -4.912922353801E-01
     33 T   8 O    -1.801470959059E-01  1.786684586912E-01 -1.652869480205E-01
     34 T   8 O    -1.691051040416E-01 -4.950033486446E-01  1.687146370311E-01
     35 T   8 O    -1.866309681617E-01 -4.914785605044E-01 -4.949372288743E-01
     36 T   8 O    -1.728690177204E-01 -4.908849831320E-01 -1.764424288738E-01
     37 T   8 O     1.684430562092E-01 -1.678440114579E-01  1.666909539896E-01
     38 T   8 O     1.684589193453E-01 -1.772563019647E-01 -4.902000628969E-01
     39 T   8 O     1.718461559840E-01 -1.742918194227E-01 -1.716876993443E-01
     40 T   8 O     1.706591126184E-01  1.699812750653E-01  1.639083245601E-01
     41 T   8 O     1.682059458502E-01  1.686759942997E-01  4.986888567930E-01
     42 T   8 O     1.656350207289E-01  1.683942418189E-01 -1.674166515060E-01
     43 T   8 O     1.791078585476E-01  4.880905914218E-01  1.651492401952E-01
     44 T   8 O     1.658522738048E-01 -4.974323532268E-01  4.988202522344E-01
     45 T   8 O     1.737525251092E-01 -4.927025832085E-01 -1.736151655463E-01
     46 T   8 O    -4.936905419311E-01 -1.688106355384E-01  1.681070423830E-01
     47 T   8 O    -4.909986444483E-01 -1.857555297481E-01 -4.936884150726E-01
     48 T   8 O    -4.923896942985E-01 -1.711156815811E-01 -1.754217959066E-01
     49 T   8 O     4.930674762259E-01  1.855113743341E-01  1.619478437305E-01
     50 T   8 O    -4.993655056298E-01  1.649902602018E-01 -4.983923845416E-01
     51 T   8 O    -4.978244674438E-01  1.724560300596E-01 -1.681692578396E-01
     52 T   8 O    -4.951394012678E-01  4.871879727605E-01  1.621847385959E-01
     53 T   8 O    -4.949477454245E-01 -4.960550135007E-01 -4.887396245102E-01
     54 T   8 O    -4.926910472202E-01  4.935880350082E-01 -1.722433018670E-01

 T = ATOM BELONGING TO THE ASYMMETRIC UNIT
 *******************************************************************************
 * GEOMETRY EDITING - INPUT COORDINATES ARE GIVEN IN ANGSTROM         
 *******************************************************************************

 GCALCO - MAX INDICES DIRECT LATTICE VECTOR    15    14    15
 NO.OF VECTORS CREATED 6999 STARS 3500 RMAX   198.53135 BOHR

 GEOMETRY FOR WAVE FUNCTION - DIMENSIONALITY OF THE SYSTEM    3
 (NON PERIODIC DIRECTION: LATTICE PARAMETER FORMALLY SET TO 500)
 *******************************************************************************
 LATTICE PARAMETERS (ANGSTROMS AND DEGREES) - BOHR = 0.5291772083 ANGSTROM
 PRIMITIVE CELL - CENTRING CODE 1/0 VOLUME=   689.898976 - DENSITY  3.290 g/cm^3
         A              B              C           ALPHA      BETA       GAMMA 
     9.91610993     9.92998871     9.90152907    60.163981  59.938377  59.992697
 *******************************************************************************
 ATOMS IN THE ASYMMETRIC UNIT   54 - ATOMS IN THE UNIT CELL:   54
     ATOM                 X/A                 Y/B                 Z/C    
 *******************************************************************************
      1 T  20 CA   -3.657613720570E-03  2.421954182087E-03 -1.977865034050E-04
      2 T  20 CA   -2.553311629299E-03 -2.457028603351E-03  3.386822412112E-01
      3 T  20 CA   -3.292315162422E-03  1.732810853660E-04 -3.333887876584E-01
      4 T  20 CA    4.343948657260E-04  3.379406987418E-01 -5.237211560821E-03
      5 T  20 CA   -1.528836620760E-03  3.359983291818E-01  3.337330881263E-01
      6 T  20 CA   -7.678696935920E-03  3.410084956186E-01 -3.341295520790E-01
      7 T  20 CA    3.123369311317E-03 -3.342988138189E-01 -4.200168525456E-03
      8 T  20 CA   -3.153847994117E-03 -3.370564127237E-01  3.395328388646E-01
      9 T  12 MG   -4.710591601013E-03 -3.234205251689E-01 -3.385258750026E-01
     10 T  20 CA    3.345681358760E-01  1.113692956119E-03 -1.378663902855E-03
     11 T  20 CA    3.363885881196E-01 -3.351748697192E-03  3.359205106101E-01
     12 T  20 CA    3.401726888224E-01 -1.722256343196E-03 -3.374044102483E-01
     13 T  12 MG    3.383683438786E-01  3.350429901711E-01 -6.197694755568E-04
     14 T  12 MG    3.383625378779E-01  3.337491728566E-01  3.195526978154E-01
     15 T  20 CA    3.358966327909E-01  3.370795717958E-01 -3.332740817184E-01
     16 T  20 CA    3.411185403681E-01 -3.402373552980E-01 -5.536091669656E-03
     17 T  20 CA    3.394516855462E-01 -3.362644190177E-01  3.354169874191E-01
     18 T  12 MG    3.406008937926E-01 -3.395957326149E-01 -3.322862761870E-01
     19 T  20 CA   -3.363863274266E-01  6.158066738728E-03 -2.047094622100E-03
     20 T  20 CA   -3.364564266738E-01 -2.477993623101E-03  3.381386519848E-01
     21 T  12 MG   -3.220376456932E-01 -7.465929770934E-03 -3.343882621903E-01
     22 T  12 MG   -3.458980721954E-01  3.378566530294E-01  4.244127587844E-04
     23 T  20 CA   -3.382921565239E-01  3.315326465903E-01  3.398683775194E-01
     24 T  12 MG   -3.474636080909E-01  3.432392339527E-01 -3.282886699898E-01
     25 T  20 CA   -3.297560796967E-01 -3.328153745611E-01 -7.007959060644E-03
     26 T  12 MG   -3.372900628303E-01 -3.436615329855E-01  3.522523812171E-01
     27 T  12 MG   -3.343653652213E-01 -3.373958109992E-01 -3.321622008744E-01
     28 T   8 O    -1.682399877322E-01 -1.675259411132E-01  1.681477468059E-01
     29 T   8 O    -1.705095717393E-01 -1.723658760678E-01 -4.823872473595E-01
     30 T   8 O    -1.667713720482E-01 -1.662265719352E-01 -1.808675800941E-01
     31 T   8 O    -1.713477471995E-01  1.689451322153E-01  1.649790650554E-01
     32 T   8 O    -1.763252854464E-01  1.671659924996E-01 -4.912922353801E-01
     33 T   8 O    -1.801470959059E-01  1.786684586912E-01 -1.652869480205E-01
     34 T   8 O    -1.691051040416E-01 -4.950033486446E-01  1.687146370311E-01
     35 T   8 O    -1.866309681617E-01 -4.914785605044E-01 -4.949372288743E-01
     36 T   8 O    -1.728690177204E-01 -4.908849831320E-01 -1.764424288738E-01
     37 T   8 O     1.684430562092E-01 -1.678440114579E-01  1.666909539896E-01
     38 T   8 O     1.684589193453E-01 -1.772563019647E-01 -4.902000628969E-01
     39 T   8 O     1.718461559840E-01 -1.742918194227E-01 -1.716876993443E-01
     40 T   8 O     1.706591126184E-01  1.699812750653E-01  1.639083245601E-01
     41 T   8 O     1.682059458502E-01  1.686759942997E-01  4.986888567930E-01
     42 T   8 O     1.656350207289E-01  1.683942418189E-01 -1.674166515060E-01
     43 T   8 O     1.791078585476E-01  4.880905914218E-01  1.651492401952E-01
     44 T   8 O     1.658522738048E-01 -4.974323532268E-01  4.988202522344E-01
     45 T   8 O     1.737525251092E-01 -4.927025832085E-01 -1.736151655463E-01
     46 T   8 O    -4.936905419311E-01 -1.688106355384E-01  1.681070423830E-01
     47 T   8 O    -4.909986444483E-01 -1.857555297481E-01 -4.936884150726E-01
     48 T   8 O    -4.923896942985E-01 -1.711156815811E-01 -1.754217959066E-01
     49 T   8 O     4.930674762259E-01  1.855113743341E-01  1.619478437305E-01
     50 T   8 O    -4.993655056298E-01  1.649902602018E-01 -4.983923845416E-01
     51 T   8 O    -4.978244674438E-01  1.724560300596E-01 -1.681692578396E-01
     52 T   8 O    -4.951394012678E-01  4.871879727605E-01  1.621847385959E-01
     53 T   8 O    -4.949477454245E-01 -4.960550135007E-01 -4.887396245102E-01
     54 T   8 O    -4.926910472202E-01  4.935880350082E-01 -1.722433018670E-01

 T = ATOM BELONGING TO THE ASYMMETRIC UNIT

 ****    1 SYMMOPS - TRANSLATORS IN FRACTIONAL UNITS
 **** MATRICES AND TRANSLATORS IN THE CRYSTALLOGRAPHIC REFERENCE FRAME
   V INV                    ROTATION MATRICES                   TRANSLATORS
   1   1  1.00  0.00  0.00  0.00  1.00  0.00  0.00  0.00  1.00  0.00  0.00  0.00

 DIRECT LATTICE VECTORS CARTESIAN COMPONENTS (ANGSTROM)
          X                    Y                    Z
   0.682206022562E-02   0.700958081777E+01   0.701391234505E+01
   0.700998833989E+01  -0.189757946971E-01   0.703309172811E+01
   0.699510078937E+01   0.700776987960E+01   0.206724300616E-02


 CARTESIAN COORDINATES - PRIMITIVE CELL
 *******************************************************************************
 *      ATOM          X(ANGSTROM)         Y(ANGSTROM)         Z(ANGSTROM)
 *******************************************************************************
    1    20 CA    1.556938158900E-02 -2.707033978100E-02 -8.620764977000E-03
    2    20 CA    2.351875252136E+00  2.355556188567E+00 -3.448907300900E-02
    3    20 CA   -2.330895933701E+00 -2.359392941704E+00 -2.256250383300E-02
    4    20 CA    2.332328498499E+00 -4.006894083000E-02  2.379803913835E+00
    5    20 CA    4.689830528163E+00  2.321632343634E+00  2.353073850972E+00
    6    20 CA    5.314330005700E-02 -2.401798364894E+00  2.343795595538E+00
    7    20 CA   -2.372790081264E+00 -1.196719212000E-03 -2.329255866385E+00
    8    20 CA    1.228339034000E-02  2.363656762218E+00 -2.391967584727E+00
    9    12 MG   -4.635228861708E+00 -2.399193541349E+00 -2.308385712097E+00
   10    20 CA    4.455256540001E-04  2.335499894892E+00  2.354461433165E+00
   11    20 CA    2.328596972856E+00  4.712060232888E+00  2.336521344235E+00
   12    20 CA   -2.369930174779E+00  2.004817209900E-02  2.373131137832E+00
   13    12 MG    2.346620473734E+00  2.361119343733E+00  4.729672705824E+00
   14    12 MG    4.577189468518E+00  4.604798169872E+00  4.721194321485E+00
   15    20 CA    3.392958285700E-02  1.259016969600E-02  4.725972128990E+00
   16    20 CA   -2.421458281416E+00  2.358758594899E+00 -3.564321740003E-04
   17    20 CA   -8.618263128000E-03  4.736319969685E+00  1.659925237100E-02
   18    12 MG   -4.702614518949E+00  6.532783287800E-02 -1.500407290003E-04
   19    20 CA    2.655349504300E-02 -2.372389570333E+00 -2.316078198244E+00
   20    20 CA    2.345647919005E+00  1.122636797800E-02 -2.376604826308E+00
   21    12 MG   -2.393612637658E+00 -4.600523223769E+00 -2.311943649409E+00
   22    12 MG    2.368980270834E+00 -2.428037403302E+00 -4.992104962800E-02
   23    20 CA    4.699145693293E+00  4.142072400000E-03 -4.034942801800E-02
   24    12 MG    1.073202755540E-01 -4.742658932751E+00 -2.372492562600E-02
   25    20 CA   -2.384302890802E+00 -2.354246618988E+00 -4.653615783208E+00
   26    12 MG    5.267655769000E-02  1.107629233660E-01 -4.781997829187E+00
   27    12 MG   -4.690929835227E+00 -4.665074962970E+00 -4.718831710307E+00
   28     8 O     7.077992520000E-04  2.227862465000E-03 -2.357898235319E+00
   29     8 O     2.411307366586E+00  2.435381213418E+00 -2.407134176010E+00
   30     8 O    -2.431571007677E+00 -2.433321509139E+00 -2.339180410519E+00
   31     8 O     2.337179650458E+00 -4.814642722200E-02 -1.327041567300E-02
   32     8 O     4.729090842383E+00  2.325768504315E+00 -5.998471469800E-02
   33     8 O     9.503597722300E-02 -2.424438899659E+00 -7.285969291000E-03
   34     8 O     4.719042883155E+00 -1.262525462200E-02  2.365948168676E+00
   35     8 O     7.096421142726E+00  2.221509221939E+00  2.268508765606E+00
   36     8 O     2.333478435564E+00 -2.457868151182E+00  2.367799726948E+00
   37     8 O    -9.415410733000E-03  2.352032035763E+00  1.327093495000E-03
   38     8 O     2.324686569400E+00  4.756750632673E+00 -6.404985671900E-02
   39     8 O    -2.421584038274E+00  4.728956213000E-03 -2.085139874900E-02
   40     8 O     2.339286253466E+00  2.341655132277E+00  2.392820794722E+00
   41     8 O     4.671943080156E+00  4.670549160355E+00  2.367126411401E+00
   42     8 O     1.047529263900E-02 -1.538071827600E-02  2.345735574959E+00
   43     8 O     4.577966819728E+00  2.403536973809E+00  4.689374124871E+00
   44     8 O     7.013422738245E+00  4.648635835502E+00  4.698908852708E+00
   45     8 O     2.342878745196E+00 -8.349132344000E-03  4.786195341838E+00
   46     8 O    -3.980808285999E-03  4.730275849258E+00  2.364296992050E+00
   47     8 O     2.243028907691E+00  7.119526071437E+00  2.264701880712E+00
   48     8 O    -2.423149127598E+00  2.332066940211E+00  2.356499265476E+00
   49     8 O     2.436637796533E+00  4.587569318827E+00  4.763385356290E+00
   50     8 O     4.668790985729E+00  7.021257866134E+00  4.672835039500E+00
   51     8 O     3.597972332700E-02  2.338276030176E+00  4.734766598931E+00
   52     8 O     4.553124790772E+00  4.666169715634E+00  6.967820962500E+00
   53     8 O     7.112411832366E+00  7.113436899032E+00  7.087740458669E+00
   54     8 O     2.258648005492E+00  2.339615456085E+00  7.029314384006E+00
 WARNING **** CRYSTA **** TESTGEOM  DIRECTIVE - GEOMETRY EDITING COMPLETE
 TTTTTTTTTTTTTTTTTTTTTTTTTTTTTT END         TELAPSE        0.01 TCPU        0.01
 EEEEEEEEEE TERMINATION  DATE 10 03 2023 TIME 10:30:07.9
Fri 10 Mar 2023 10:30:07 GMT
Contents of temporary directory:
total 8
-rw-r--r--  1 brunocamino  admin  4027 10 Mar 10:30 fort.34
SCF abnormal end - no wf written in fort.9
geometry input file fort.34 saved as /Users/brunocamino/Desktop/Imperial/cmsg_icl/solid-solutions/./data/crystal/testgeom_opt/CaMgO_testgeom_1743.gui
temporary directory /Users/brunocamino/crystal/tmp removed
