date Fri 10 Mar 2023 10:30:43 GMT
hostname MacBook-Pro-8
system Darwin MacBook-Pro-8 21.6.0 Darwin Kernel Version 21.6.0: Mon Aug 22 20:20:05 PDT 2022; root:xnu-8020.140.49~2/RELEASE_ARM64_T8101 arm64
user brunocamino
output data in /Users/brunocamino/Desktop/Imperial/cmsg_icl/solid-solutions/./data/crystal/testgeom_opt/CaMgO_testgeom_2200.out
crystal executable in /Users/brunocamino/crystal
input data in /Users/brunocamino/Desktop/Imperial/cmsg_icl/solid-solutions/./data/crystal/testgeom_opt/CaMgO_testgeom_2200.d12
temporary directory /Users/brunocamino/crystal/tmp
external geometry input from /Users/brunocamino/Desktop/Imperial/cmsg_icl/solid-solutions/./data/crystal/testgeom_opt/CaMgO_testgeom_2200.gui
external geometry input saved in /Users/brunocamino/Desktop/Imperial/cmsg_icl/solid-solutions/./data/crystal/testgeom_opt/CaMgO_testgeom_2200_inp.gui
Bulk 
EXTERNAL
EXTPRT
TESTGEOM
END

         
 *******************************************************************************
 *                                                                             *
 *                               CRYSTAL17                                     *
 *                      public : 1.0.1 - Feb 1st, 2017                         *
 *                       HTTP://WWW.CRYSTAL.UNITO.IT                           *
 *                                                                             *
 *                              MAIN AUTHORS                                   *
 *                                                                             *
 *  R. DOVESI(1,11), V.R. SAUNDERS(2), C. ROETTI(1,11), R. ORLANDO(1,11),      *
 *  C.M. ZICOVICH-WILSON(1,3), F. PASCALE(4), B. CIVALLERI(1,11),              *
 *  K. DOLL(5), N.M. HARRISON(2,6), I.J. BUSH(7), Ph. D'ARCO(8),               *
 *  M. LLUNELL(9), M. CAUSA'(10), Y. NOEL(8), L. MASCHIO(1,11), A. ERBA(1,11)  *
 *  M. RE'RAT(14), S. CASASSA(1,11)                                            *
 *                                                                             *
 *        CONTRIBUTIONS TO THE CODE HAVE ALSO BEEN GIVEN BY                    *
 *                                                                             *
 *  M. FERRABONE(1,11), M. DE LA PIERRE(1,11), M. FERRERO(1,11),               *
 *  J. BAIMA(1,11), E. ALBANESE(1,11), M.F. PEINTINGER(12), R. BAST(13),       *
 *  B. KIRTMAN(15), V. LACIVITA(1,11), R. DEMICHELIS(1,16)                     *
 *  G. BRANDEBURG(17), S. SALUSTRO(1,11), G. SANSONE(1,11)                     *
 *  M.T. RUGGIERO(18)                                                          *
 *                                                                             *
 * (1) THEORETICAL CHEMISTRY GROUP - UNIVERSITA' DI TORINO - TORINO (ITALY)    *

 * (2) COMPUTATIONAL SCIENCE & ENGINEERING DEPARTMENT - STFC DARESBURY (UK)    *
 * (3) UNIVERSIDAD AUTONOMA DEL ESTADO DE MORELOS - CUERNAVACA (MEXICO)        *
 * (4) UNIVERSITE' DE LORRAINE - NANCY (FRANCE)                                *
 * (5) UNIVERSITAET STUTTGART- STUTTGART (GERMANY)                             *
 * (6) IMPERIAL COLLEGE - LONDON (UK)                                          *
 * (7) OXFORD E-RESEARCH CENTRE - OXFORD (UK)                                  *
 * (8) UPMC - SORBONNE UNIVERSITES - PARIS (FRANCE)                            *
 * (9) UNIVERSIDAD DE BARCELONA - BARCELONA (SPAIN)                            *
 *(10) UNIVERSITA' DI NAPOLI "FEDERICO II" - NAPOLI (ITALY)                    *
 *(11) NIS - NANOSTRUCTURED INTERFACES AND SURFACES - TORINO (ITALY)           *
 *(12) MPI FUER CHEMISCHE ENERGIEKONVERSION - MUELHEIM AN DER RUHR (GERMANY)   *
 *(13) UNIVERSITY OF TROMSO - TROMSO (NORWAY)                                  *
 *(14) UNIVERSITE' DE PAU ET DES PAYS DE L'ADOUR - PAU (FRANCE)                *
 *(15) UNIVERSITY OF CALIFORNIA SANTA BARBARA - SANTA BARBARA (USA)            *
 *(16) CURTIN UNIVERSITY - PERTH (AUSTRALIA)                                   *
 *(17) UNIVERSITY COLLEGE LONDON - LONDON (UK)                                 *
 *(18) CAMBRIDGE UNIVERSITY - CAMBRIDGE (UK)                                   *
 *                                                                             *
 *******************************************************************************
 EEEEEEEEEE STARTING  DATE 10 03 2023 TIME 10:30:43.7
 Bulk                                                                            

 GEOMETRY INPUT FROM EXTERNAL FILE (FORTRAN UNIT 34)
 3D - CRYSTAL 

 *******************************************************************************
 LATTICE PARAMETERS  (ANGSTROMS AND DEGREES) - PRIMITIVE CELL
       A          B          C        ALPHA      BETA     GAMMA        VOLUME
    9.93232    9.91540    9.88681    60.17411  60.11385  59.92421    689.593442
 INFORMATION **** CHKGRP **** SPGR WITH NO INVERSION

 NUMBER OF IRREDUCIBLE ATOMS IN THE CELL:   54

 CARTESIAN COORDINATES (ANGSTROM) - IRREDUCIBLE ATOMS AND SYMMETRY RELATED

 AT.IRR.  AT  AT.N.          X                   Y                   Z
     1     1    20    1.217221277000E-03 -1.413571498900E-02 -3.869396276000E-02
     2     2    20    2.333997982933E+00  2.334204361695E+00 -7.495432726400E-02
     3     3    20   -2.333383032868E+00 -2.350470908476E+00 -3.254469659300E-02
     4     4    20    2.353188988985E+00 -2.440580211800E-02  2.366709984111E+00
     5     5    20    4.676670399842E+00  2.313036369529E+00  2.312954502712E+00
     6     6    20    4.573771026000E-03 -2.336666579997E+00  2.342135958860E+00
     7     7    20   -2.318026643536E+00 -3.838452113800E-02 -2.317830020447E+00
     8     8    20    4.427821920700E-02  2.347347949033E+00 -2.296578476813E+00
     9     9    12   -4.723219792216E+00 -2.308692112134E+00 -2.312740952755E+00
    10    10    20   -5.426528537300E-02  2.345915539235E+00  2.347360679485E+00
    11    11    20    2.310471575581E+00  4.703459612306E+00  2.356967663999E+00
    12    12    12   -2.362420396185E+00  5.764569823100E-02  2.323109062053E+00
    13    13    20    2.314310126039E+00  2.353575309667E+00  4.735820200247E+00
    14    14    20    4.658677122709E+00  4.715893587468E+00  4.724215751739E+00
    15    15    20   -7.096288031900E-02  2.046659435800E-02  4.725470046049E+00
    16    16    12   -2.277602365205E+00  2.306848163879E+00  2.845289583900E-02
    17    17    12   -9.635994615700E-02  4.597918526768E+00 -4.310447155900E-02
    18    18    20   -4.689042726008E+00  2.025900741900E-02  1.053756902700E-02
    19    19    12    4.019377446000E-02 -2.364266920516E+00 -2.295918748030E+00
    20    20    12    2.422069480578E+00 -3.192768524600E-02 -2.349127515834E+00
    21    21    12   -2.345400561306E+00 -4.664392346970E+00 -2.275089025177E+00
    22    22    20    2.368378739231E+00 -2.341415278413E+00 -2.263204948100E-02
    23    23    12    4.680938082284E+00  6.253234402200E-02 -1.290228223700E-02
    24    24    12   -1.030905383440E-01 -4.617007522800E+00 -6.488192562500E-02
    25    25    20   -2.305774942397E+00 -2.382267240406E+00 -4.698733895288E+00
    26    26    20    1.263040045200E-02 -2.482651862300E-02 -4.721597965113E+00
    27    27    20   -4.609491284048E+00 -4.674115316026E+00 -4.651159729048E+00
    28    28     8    9.703090532600E-02 -9.552484020300E-02 -2.360037836508E+00
    29    29     8    2.427847350746E+00  2.360162900177E+00 -2.342205562496E+00
    30    30     8   -2.344484105840E+00 -2.436450061792E+00 -2.345935575795E+00
    31    31     8    2.446406880865E+00  1.771608590000E-03 -7.824316885900E-02
    32    32     8    4.753822080843E+00  2.246722641091E+00 -7.701264300900E-02
    33    33     8    5.621868116000E-03 -2.414436619900E+00 -6.651840572000E-02
    34    34     8    4.655175031811E+00 -1.201670973200E-02  2.291401211221E+00
    35    35     8    6.984635016841E+00  2.327179527923E+00  2.286536432290E+00
    36    36     8    2.326046770300E+00 -2.337466142083E+00  2.386583302873E+00
    37    37     8   -9.142599499500E-02  2.403344826939E+00  1.642120634800E-02
    38    38     8    2.246285814576E+00  4.670478785369E+00 -7.930584201100E-02
    39    39     8   -2.320097616078E+00  8.253678199900E-02  5.465207961300E-02
    40    40     8    2.331063905602E+00  2.331620901251E+00  2.362075553467E+00
    41    41     8    4.657342174198E+00  4.742867564058E+00  2.347134545305E+00
    42    42     8   -8.340983976000E-02 -1.874087463000E-03  2.362861669765E+00
    43    43     8    4.671407577448E+00  2.324818356240E+00  4.751010099467E+00
    44    44     8    7.084396082342E+00  4.662920817798E+00  4.767440262994E+00
    45    45     8    2.319413065046E+00 -8.461927649900E-02  4.698880123472E+00
    46    46     8   -4.093916084000E-03  4.656048987561E+00  2.325355701433E+00
    47    47     8    2.407847713943E+00  7.005341792572E+00  2.349829577662E+00
    48    48     8   -2.334622421606E+00  2.208479695420E+00  2.296385516103E+00
    49    49     8    2.242323820101E+00  4.757390718026E+00  4.692512715499E+00
    50    50     8    4.534124842897E+00  7.109683601501E+00  4.695570444067E+00
    51    51     8   -8.601157540200E-02  2.448823837116E+00  4.814937034539E+00
    52    52     8    4.784070578716E+00  4.649297460232E+00  7.024575982914E+00
    53    53     8    6.849264163055E+00  7.009482672934E+00  7.022490655978E+00
    54    54     8    2.366190584006E+00  2.338700382415E+00  7.044815129295E+00

 SYMMETRY CHANGED DURING OLD RUN :  INFORMATION ON SPACE GROUP LOST 
 NUMBER OF SYMMETRY OPERATORS         :    1
 *******************************************************************************
 LATTICE PARAMETERS (ANGSTROMS AND DEGREES) - BOHR = 0.5291772083 ANGSTROM
 PRIMITIVE CELL - CENTRING CODE 1/0 VOLUME=   689.593442 - DENSITY  3.292 g/cm^3
         A              B              C           ALPHA      BETA       GAMMA 
     9.93231629     9.91540089     9.88681216    60.174106  60.113848  59.924214
 *******************************************************************************
 ATOMS IN THE ASYMMETRIC UNIT   54 - ATOMS IN THE UNIT CELL:   54
     ATOM                 X/A                 Y/B                 Z/C    
 *******************************************************************************
      1 T  20 CA   -3.841815420509E-03 -1.656630074273E-03  1.825967391971E-03
      2 T  20 CA   -5.388668508169E-03 -5.154159283833E-03  3.391408313838E-01
      3 T  20 CA   -3.447303674257E-03 -1.286644901730E-03 -3.326224594647E-01
      4 T  20 CA   -1.536904146168E-03  3.380835823275E-01 -1.438558040521E-03
      5 T  20 CA   -4.439555522853E-03  3.334551228798E-01  3.356749468779E-01
      6 T  20 CA   -6.079817753186E-04  3.335508091707E-01 -3.329876859653E-01
      7 T  20 CA   -1.976613696872E-03 -3.276181665712E-01 -4.002846139634E-03
      8 T  20 CA    1.119800722735E-03 -3.275844553208E-01  3.340110874036E-01
      9 T  12 MG    8.084426571028E-03 -3.370736891957E-01 -3.387115442802E-01
     10 T  20 CA    3.377691880867E-01 -4.260011928909E-03 -3.038564401008E-03
     11 T  20 CA    3.378558931266E-01 -2.870245399369E-03  3.339628136838E-01
     12 T  12 MG    3.375455413699E-01 -7.591896697609E-03 -3.300006958219E-01
     13 T  20 CA    3.389649947412E-01  3.341819467534E-01 -2.630048210229E-03
     14 T  20 CA    3.393388424478E-01  3.322681937122E-01  3.347612354203E-01
     15 T  20 CA    3.420321487000E-01  3.295300964615E-01 -3.393028110431E-01
     16 T  12 MG    3.289138801206E-01 -3.251447239303E-01 -2.361955484878E-04
     17 T  12 MG    3.315863861963E-01 -3.378884653226E-01  3.246482260266E-01
     18 T  20 CA    3.366264854331E-01 -3.355210496444E-01 -3.349210472854E-01
     19 T  12 MG   -3.344213822650E-01  8.222468004462E-03 -2.933971399111E-03
     20 T  12 MG   -3.418138174520E-01  8.166550325076E-03  3.379557252771E-01
     21 T  12 MG   -3.267662189892E-01  3.412561147683E-03 -3.394882926590E-01
     22 T  20 CA   -3.374391945057E-01  3.345061199281E-01  3.850512705260E-03
     23 T  12 MG   -3.303143485637E-01  3.288691426846E-01  3.404236942359E-01
     24 T  12 MG   -3.263890072681E-01  3.173284500453E-01 -3.326166242114E-01
     25 T  20 CA   -3.389859664300E-01 -3.288886244303E-01 -1.443363901834E-03
     26 T  20 CA   -3.379076198801E-01 -3.331090468262E-01  3.345411004359E-01
     27 T  20 CA   -3.346815965170E-01 -3.265403703471E-01 -3.334457514189E-01
     28 T   8 O    -1.812946543454E-01 -1.540948956619E-01  1.677718537190E-01
     29 T   8 O    -1.712082413128E-01 -1.615423057017E-01 -4.912273858710E-01
     30 T   8 O    -1.730372615426E-01 -1.604662931988E-01 -1.752219137934E-01
     31 T   8 O    -1.799128040121E-01  1.689972655000E-01  1.807871710503E-01
     32 T   8 O    -1.843589900614E-01  1.737288206028E-01 -4.937630650670E-01
     33 T   8 O    -1.772430194163E-01  1.678784080386E-01 -1.673638021293E-01
     34 T   8 O    -1.701840193013E-01  4.962197431051E-01  1.695617215450E-01
     35 T   8 O    -1.699167580813E-01  4.953699985533E-01 -4.962446170187E-01
     36 T   8 O    -1.630823678252E-01 -4.974642881576E-01 -1.700420214159E-01
     37 T   8 O     1.790151366106E-01 -1.767769377000E-01  1.639887079665E-01
     38 T   8 O     1.671054274940E-01 -1.783594470365E-01 -4.999206238058E-01
     39 T   8 O     1.752392667770E-01 -1.676689601501E-01 -1.640475535321E-01
     40 T   8 O     1.676673629271E-01  1.681326684512E-01  1.656256389997E-01
     41 T   8 O     1.725824283306E-01  1.612002170115E-01 -4.945452354608E-01
     42 T   8 O     1.735803326502E-01  1.622152308499E-01 -1.739558659678E-01
     43 T   8 O     1.698794714506E-01 -4.943759931731E-01  1.629465016139E-01
     44 T   8 O     1.656232567258E-01 -4.876688796009E-01 -4.984721364853E-01
     45 T   8 O     1.621654235024E-01 -4.941786888428E-01 -1.738294745777E-01
     46 T   8 O     4.973121556882E-01 -1.670105608027E-01  1.671555439169E-01
     47 T   8 O     4.944994480740E-01 -1.606043038883E-01 -4.941099728725E-01
     48 T   8 O     4.869931501205E-01 -1.609137159883E-01 -1.724534013623E-01
     49 T   8 O    -4.876135901465E-01  1.545118825278E-01  1.670266607695E-01
     50 T   8 O    -4.831642675098E-01  1.506023760175E-01  4.988977205832E-01
     51 T   8 O    -4.774307542068E-01  1.616176950571E-01 -1.732494350390E-01
     52 T   8 O     4.889752865908E-01 -4.904353987604E-01  1.755666312966E-01
     53 T   8 O    -4.902157253790E-01  4.885453111549E-01  4.921473784626E-01
     54 T   8 O     4.981447132966E-01 -4.968458117739E-01 -1.640047065780E-01

 T = ATOM BELONGING TO THE ASYMMETRIC UNIT
 *******************************************************************************
 * GEOMETRY EDITING - INPUT COORDINATES ARE GIVEN IN ANGSTROM         
 *******************************************************************************

 GCALCO - MAX INDICES DIRECT LATTICE VECTOR    14    15    15
 NO.OF VECTORS CREATED 6999 STARS 3500 RMAX   198.56309 BOHR

 GEOMETRY FOR WAVE FUNCTION - DIMENSIONALITY OF THE SYSTEM    3
 (NON PERIODIC DIRECTION: LATTICE PARAMETER FORMALLY SET TO 500)
 *******************************************************************************
 LATTICE PARAMETERS (ANGSTROMS AND DEGREES) - BOHR = 0.5291772083 ANGSTROM
 PRIMITIVE CELL - CENTRING CODE 1/0 VOLUME=   689.593442 - DENSITY  3.292 g/cm^3
         A              B              C           ALPHA      BETA       GAMMA 
     9.93231629     9.91540089     9.88681216    60.174106  60.113848  59.924214
 *******************************************************************************
 ATOMS IN THE ASYMMETRIC UNIT   54 - ATOMS IN THE UNIT CELL:   54
     ATOM                 X/A                 Y/B                 Z/C    
 *******************************************************************************
      1 T  20 CA   -3.841815420509E-03 -1.656630074273E-03  1.825967391971E-03
      2 T  20 CA   -5.388668508169E-03 -5.154159283833E-03  3.391408313838E-01
      3 T  20 CA   -3.447303674256E-03 -1.286644901730E-03 -3.326224594647E-01
      4 T  20 CA   -1.536904146168E-03  3.380835823275E-01 -1.438558040521E-03
      5 T  20 CA   -4.439555522853E-03  3.334551228798E-01  3.356749468779E-01
      6 T  20 CA   -6.079817753185E-04  3.335508091707E-01 -3.329876859653E-01
      7 T  20 CA   -1.976613696872E-03 -3.276181665712E-01 -4.002846139634E-03
      8 T  20 CA    1.119800722735E-03 -3.275844553208E-01  3.340110874036E-01
      9 T  12 MG    8.084426571028E-03 -3.370736891957E-01 -3.387115442802E-01
     10 T  20 CA    3.377691880867E-01 -4.260011928909E-03 -3.038564401008E-03
     11 T  20 CA    3.378558931266E-01 -2.870245399369E-03  3.339628136838E-01
     12 T  12 MG    3.375455413699E-01 -7.591896697609E-03 -3.300006958219E-01
     13 T  20 CA    3.389649947412E-01  3.341819467534E-01 -2.630048210229E-03
     14 T  20 CA    3.393388424478E-01  3.322681937122E-01  3.347612354203E-01
     15 T  20 CA    3.420321487000E-01  3.295300964615E-01 -3.393028110431E-01
     16 T  12 MG    3.289138801206E-01 -3.251447239303E-01 -2.361955484878E-04
     17 T  12 MG    3.315863861963E-01 -3.378884653226E-01  3.246482260266E-01
     18 T  20 CA    3.366264854331E-01 -3.355210496444E-01 -3.349210472854E-01
     19 T  12 MG   -3.344213822650E-01  8.222468004462E-03 -2.933971399111E-03
     20 T  12 MG   -3.418138174520E-01  8.166550325076E-03  3.379557252771E-01
     21 T  12 MG   -3.267662189892E-01  3.412561147683E-03 -3.394882926590E-01
     22 T  20 CA   -3.374391945057E-01  3.345061199281E-01  3.850512705260E-03
     23 T  12 MG   -3.303143485637E-01  3.288691426846E-01  3.404236942359E-01
     24 T  12 MG   -3.263890072681E-01  3.173284500453E-01 -3.326166242114E-01
     25 T  20 CA   -3.389859664300E-01 -3.288886244303E-01 -1.443363901834E-03
     26 T  20 CA   -3.379076198801E-01 -3.331090468262E-01  3.345411004359E-01
     27 T  20 CA   -3.346815965170E-01 -3.265403703471E-01 -3.334457514189E-01
     28 T   8 O    -1.812946543454E-01 -1.540948956619E-01  1.677718537190E-01
     29 T   8 O    -1.712082413128E-01 -1.615423057017E-01 -4.912273858710E-01
     30 T   8 O    -1.730372615426E-01 -1.604662931988E-01 -1.752219137934E-01
     31 T   8 O    -1.799128040121E-01  1.689972655000E-01  1.807871710503E-01
     32 T   8 O    -1.843589900614E-01  1.737288206028E-01 -4.937630650670E-01
     33 T   8 O    -1.772430194163E-01  1.678784080386E-01 -1.673638021293E-01
     34 T   8 O    -1.701840193013E-01  4.962197431051E-01  1.695617215450E-01
     35 T   8 O    -1.699167580813E-01  4.953699985533E-01 -4.962446170187E-01
     36 T   8 O    -1.630823678252E-01 -4.974642881576E-01 -1.700420214159E-01
     37 T   8 O     1.790151366106E-01 -1.767769377000E-01  1.639887079665E-01
     38 T   8 O     1.671054274940E-01 -1.783594470365E-01 -4.999206238058E-01
     39 T   8 O     1.752392667770E-01 -1.676689601501E-01 -1.640475535321E-01
     40 T   8 O     1.676673629271E-01  1.681326684512E-01  1.656256389997E-01
     41 T   8 O     1.725824283306E-01  1.612002170115E-01 -4.945452354608E-01
     42 T   8 O     1.735803326502E-01  1.622152308499E-01 -1.739558659678E-01
     43 T   8 O     1.698794714506E-01 -4.943759931731E-01  1.629465016139E-01
     44 T   8 O     1.656232567258E-01 -4.876688796009E-01 -4.984721364853E-01
     45 T   8 O     1.621654235024E-01 -4.941786888428E-01 -1.738294745777E-01
     46 T   8 O     4.973121556882E-01 -1.670105608027E-01  1.671555439169E-01
     47 T   8 O     4.944994480740E-01 -1.606043038883E-01 -4.941099728725E-01
     48 T   8 O     4.869931501205E-01 -1.609137159883E-01 -1.724534013623E-01
     49 T   8 O    -4.876135901465E-01  1.545118825278E-01  1.670266607695E-01
     50 T   8 O    -4.831642675098E-01  1.506023760175E-01  4.988977205832E-01
     51 T   8 O    -4.774307542068E-01  1.616176950571E-01 -1.732494350390E-01
     52 T   8 O     4.889752865908E-01 -4.904353987604E-01  1.755666312966E-01
     53 T   8 O    -4.902157253790E-01  4.885453111549E-01  4.921473784626E-01
     54 T   8 O     4.981447132966E-01 -4.968458117739E-01 -1.640047065780E-01

 T = ATOM BELONGING TO THE ASYMMETRIC UNIT

 ****    1 SYMMOPS - TRANSLATORS IN FRACTIONAL UNITS
 **** MATRICES AND TRANSLATORS IN THE CRYSTALLOGRAPHIC REFERENCE FRAME
   V INV                    ROTATION MATRICES                   TRANSLATORS
   1   1  1.00  0.00  0.00  0.00  1.00  0.00  0.00  0.00  1.00  0.00  0.00  0.00

 DIRECT LATTICE VECTORS CARTESIAN COMPONENTS (ANGSTROM)
          X                    Y                    Z
  -0.963234028340E-02   0.700810488389E+01   0.703827251843E+01
   0.699006753829E+01  -0.105710474430E-01   0.703235514390E+01
   0.698817063481E+01   0.699389165629E+01  -0.230444454800E-02


 CARTESIAN COORDINATES - PRIMITIVE CELL
 *******************************************************************************
 *      ATOM          X(ANGSTROM)         Y(ANGSTROM)         Z(ANGSTROM)
 *******************************************************************************
    1    20 CA    1.217221277000E-03 -1.413571498900E-02 -3.869396276000E-02
    2    20 CA    2.333997982933E+00  2.334204361695E+00 -7.495432726400E-02
    3    20 CA   -2.333383032868E+00 -2.350470908476E+00 -3.254469659300E-02
    4    20 CA    2.353188988985E+00 -2.440580211800E-02  2.366709984111E+00
    5    20 CA    4.676670399842E+00  2.313036369529E+00  2.312954502712E+00
    6    20 CA    4.573771026000E-03 -2.336666579997E+00  2.342135958860E+00
    7    20 CA   -2.318026643536E+00 -3.838452113800E-02 -2.317830020447E+00
    8    20 CA    4.427821920700E-02  2.347347949033E+00 -2.296578476813E+00
    9    12 MG   -4.723219792216E+00 -2.308692112134E+00 -2.312740952755E+00
   10    20 CA   -5.426528537300E-02  2.345915539235E+00  2.347360679485E+00
   11    20 CA    2.310471575581E+00  4.703459612306E+00  2.356967663999E+00
   12    12 MG   -2.362420396185E+00  5.764569823100E-02  2.323109062053E+00
   13    20 CA    2.314310126039E+00  2.353575309667E+00  4.735820200247E+00
   14    20 CA    4.658677122709E+00  4.715893587468E+00  4.724215751739E+00
   15    20 CA   -7.096288031900E-02  2.046659435800E-02  4.725470046049E+00
   16    12 MG   -2.277602365205E+00  2.306848163879E+00  2.845289583900E-02
   17    12 MG   -9.635994615700E-02  4.597918526768E+00 -4.310447155900E-02
   18    20 CA   -4.689042726008E+00  2.025900741900E-02  1.053756902700E-02
   19    12 MG    4.019377446000E-02 -2.364266920516E+00 -2.295918748030E+00
   20    12 MG    2.422069480578E+00 -3.192768524600E-02 -2.349127515834E+00
   21    12 MG   -2.345400561306E+00 -4.664392346970E+00 -2.275089025177E+00
   22    20 CA    2.368378739231E+00 -2.341415278413E+00 -2.263204948100E-02
   23    12 MG    4.680938082284E+00  6.253234402200E-02 -1.290228223700E-02
   24    12 MG   -1.030905383440E-01 -4.617007522800E+00 -6.488192562500E-02
   25    20 CA   -2.305774942397E+00 -2.382267240406E+00 -4.698733895288E+00
   26    20 CA    1.263040045200E-02 -2.482651862300E-02 -4.721597965113E+00
   27    20 CA   -4.609491284048E+00 -4.674115316026E+00 -4.651159729048E+00
   28     8 O     9.703090532600E-02 -9.552484020300E-02 -2.360037836508E+00
   29     8 O     2.427847350746E+00  2.360162900177E+00 -2.342205562496E+00
   30     8 O    -2.344484105840E+00 -2.436450061792E+00 -2.345935575795E+00
   31     8 O     2.446406880865E+00  1.771608590000E-03 -7.824316885900E-02
   32     8 O     4.753822080843E+00  2.246722641091E+00 -7.701264300900E-02
   33     8 O     5.621868116000E-03 -2.414436619900E+00 -6.651840572000E-02
   34     8 O     4.655175031811E+00 -1.201670973200E-02  2.291401211221E+00
   35     8 O     6.984635016841E+00  2.327179527923E+00  2.286536432290E+00
   36     8 O     2.326046770300E+00 -2.337466142083E+00  2.386583302873E+00
   37     8 O    -9.142599499500E-02  2.403344826939E+00  1.642120634800E-02
   38     8 O     2.246285814576E+00  4.670478785369E+00 -7.930584201100E-02
   39     8 O    -2.320097616078E+00  8.253678199900E-02  5.465207961300E-02
   40     8 O     2.331063905602E+00  2.331620901251E+00  2.362075553467E+00
   41     8 O     4.657342174198E+00  4.742867564058E+00  2.347134545305E+00
   42     8 O    -8.340983976000E-02 -1.874087463000E-03  2.362861669765E+00
   43     8 O     4.671407577448E+00  2.324818356240E+00  4.751010099467E+00
   44     8 O     7.084396082342E+00  4.662920817798E+00  4.767440262994E+00
   45     8 O     2.319413065046E+00 -8.461927649900E-02  4.698880123472E+00
   46     8 O    -4.093916084000E-03  4.656048987561E+00  2.325355701433E+00
   47     8 O     2.407847713943E+00  7.005341792572E+00  2.349829577662E+00
   48     8 O    -2.334622421606E+00  2.208479695420E+00  2.296385516103E+00
   49     8 O     2.242323820101E+00  4.757390718026E+00  4.692512715499E+00
   50     8 O     4.534124842897E+00  7.109683601501E+00  4.695570444067E+00
   51     8 O    -8.601157540200E-02  2.448823837116E+00  4.814937034539E+00
   52     8 O     4.784070578716E+00  4.649297460232E+00  7.024575982914E+00
   53     8 O     6.849264163055E+00  7.009482672934E+00  7.022490655978E+00
   54     8 O     2.366190584006E+00  2.338700382415E+00  7.044815129295E+00
 WARNING **** CRYSTA **** TESTGEOM  DIRECTIVE - GEOMETRY EDITING COMPLETE
 TTTTTTTTTTTTTTTTTTTTTTTTTTTTTT END         TELAPSE        0.01 TCPU        0.01
 EEEEEEEEEE TERMINATION  DATE 10 03 2023 TIME 10:30:43.7
Fri 10 Mar 2023 10:30:43 GMT
Contents of temporary directory:
total 8
-rw-r--r--  1 brunocamino  admin  4027 10 Mar 10:30 fort.34
SCF abnormal end - no wf written in fort.9
geometry input file fort.34 saved as /Users/brunocamino/Desktop/Imperial/cmsg_icl/solid-solutions/./data/crystal/testgeom_opt/CaMgO_testgeom_2200.gui
temporary directory /Users/brunocamino/crystal/tmp removed
