date Fri 10 Mar 2023 10:30:24 GMT
hostname MacBook-Pro-8
system Darwin MacBook-Pro-8 21.6.0 Darwin Kernel Version 21.6.0: Mon Aug 22 20:20:05 PDT 2022; root:xnu-8020.140.49~2/RELEASE_ARM64_T8101 arm64
user brunocamino
output data in /Users/brunocamino/Desktop/Imperial/cmsg_icl/solid-solutions/./data/crystal/testgeom_opt/CaMgO_testgeom_1949.out
crystal executable in /Users/brunocamino/crystal
input data in /Users/brunocamino/Desktop/Imperial/cmsg_icl/solid-solutions/./data/crystal/testgeom_opt/CaMgO_testgeom_1949.d12
temporary directory /Users/brunocamino/crystal/tmp
external geometry input from /Users/brunocamino/Desktop/Imperial/cmsg_icl/solid-solutions/./data/crystal/testgeom_opt/CaMgO_testgeom_1949.gui
external geometry input saved in /Users/brunocamino/Desktop/Imperial/cmsg_icl/solid-solutions/./data/crystal/testgeom_opt/CaMgO_testgeom_1949_inp.gui
Bulk 
EXTERNAL
EXTPRT
TESTGEOM
END

         
 *******************************************************************************
 *                                                                             *
 *                               CRYSTAL17                                     *
 *                      public : 1.0.1 - Feb 1st, 2017                         *
 *                       HTTP://WWW.CRYSTAL.UNITO.IT                           *
 *                                                                             *
 *                              MAIN AUTHORS                                   *
 *                                                                             *
 *  R. DOVESI(1,11), V.R. SAUNDERS(2), C. ROETTI(1,11), R. ORLANDO(1,11),      *
 *  C.M. ZICOVICH-WILSON(1,3), F. PASCALE(4), B. CIVALLERI(1,11),              *
 *  K. DOLL(5), N.M. HARRISON(2,6), I.J. BUSH(7), Ph. D'ARCO(8),               *
 *  M. LLUNELL(9), M. CAUSA'(10), Y. NOEL(8), L. MASCHIO(1,11), A. ERBA(1,11)  *
 *  M. RE'RAT(14), S. CASASSA(1,11)                                            *
 *                                                                             *
 *        CONTRIBUTIONS TO THE CODE HAVE ALSO BEEN GIVEN BY                    *
 *                                                                             *
 *  M. FERRABONE(1,11), M. DE LA PIERRE(1,11), M. FERRERO(1,11),               *
 *  J. BAIMA(1,11), E. ALBANESE(1,11), M.F. PEINTINGER(12), R. BAST(13),       *
 *  B. KIRTMAN(15), V. LACIVITA(1,11), R. DEMICHELIS(1,16)                     *
 *  G. BRANDEBURG(17), S. SALUSTRO(1,11), G. SANSONE(1,11)                     *
 *  M.T. RUGGIERO(18)                                                          *
 *                                                                             *
 * (1) THEORETICAL CHEMISTRY GROUP - UNIVERSITA' DI TORINO - TORINO (ITALY)    *

 * (2) COMPUTATIONAL SCIENCE & ENGINEERING DEPARTMENT - STFC DARESBURY (UK)    *
 * (3) UNIVERSIDAD AUTONOMA DEL ESTADO DE MORELOS - CUERNAVACA (MEXICO)        *
 * (4) UNIVERSITE' DE LORRAINE - NANCY (FRANCE)                                *
 * (5) UNIVERSITAET STUTTGART- STUTTGART (GERMANY)                             *
 * (6) IMPERIAL COLLEGE - LONDON (UK)                                          *
 * (7) OXFORD E-RESEARCH CENTRE - OXFORD (UK)                                  *
 * (8) UPMC - SORBONNE UNIVERSITES - PARIS (FRANCE)                            *
 * (9) UNIVERSIDAD DE BARCELONA - BARCELONA (SPAIN)                            *
 *(10) UNIVERSITA' DI NAPOLI "FEDERICO II" - NAPOLI (ITALY)                    *
 *(11) NIS - NANOSTRUCTURED INTERFACES AND SURFACES - TORINO (ITALY)           *
 *(12) MPI FUER CHEMISCHE ENERGIEKONVERSION - MUELHEIM AN DER RUHR (GERMANY)   *
 *(13) UNIVERSITY OF TROMSO - TROMSO (NORWAY)                                  *
 *(14) UNIVERSITE' DE PAU ET DES PAYS DE L'ADOUR - PAU (FRANCE)                *
 *(15) UNIVERSITY OF CALIFORNIA SANTA BARBARA - SANTA BARBARA (USA)            *
 *(16) CURTIN UNIVERSITY - PERTH (AUSTRALIA)                                   *
 *(17) UNIVERSITY COLLEGE LONDON - LONDON (UK)                                 *
 *(18) CAMBRIDGE UNIVERSITY - CAMBRIDGE (UK)                                   *
 *                                                                             *
 *******************************************************************************
 EEEEEEEEEE STARTING  DATE 10 03 2023 TIME 10:30:24.2
 Bulk                                                                            

 GEOMETRY INPUT FROM EXTERNAL FILE (FORTRAN UNIT 34)
 3D - CRYSTAL 

 *******************************************************************************
 LATTICE PARAMETERS  (ANGSTROMS AND DEGREES) - PRIMITIVE CELL
       A          B          C        ALPHA      BETA     GAMMA        VOLUME
    9.91650    9.92082    9.92793    59.89045  59.96124  60.15070    690.641188
 INFORMATION **** CHKGRP **** SPGR WITH NO INVERSION

 NUMBER OF IRREDUCIBLE ATOMS IN THE CELL:   54

 CARTESIAN COORDINATES (ANGSTROM) - IRREDUCIBLE ATOMS AND SYMMETRY RELATED

 AT.IRR.  AT  AT.N.          X                   Y                   Z
     1     1    20    2.137245397900E-02 -3.844623601300E-02 -5.292505636900E-02
     2     2    20    2.341995069795E+00  2.333014498716E+00 -6.723023453900E-02
     3     3    20   -2.306947232874E+00 -2.366716284063E+00 -2.314847135300E-02
     4     4    20    2.333903742300E+00 -2.332278526900E-02  2.361005329874E+00
     5     5    20    4.697130148341E+00  2.336115539352E+00  2.348558676039E+00
     6     6    20    3.452349315500E-02 -2.349502713471E+00  2.347506050520E+00
     7     7    20   -2.348705713753E+00 -1.012630489700E-02 -2.339400915696E+00
     8     8    20    6.063284027000E-03  2.359192527395E+00 -2.346006087479E+00
     9     9    12   -4.707715137484E+00 -2.293463039556E+00 -2.303162257212E+00
    10    10    20    6.539007390000E-03  2.340392466953E+00  2.406039714786E+00
    11    11    20    2.323555559676E+00  4.691602463330E+00  2.429462542402E+00
    12    12    20   -2.347409186329E+00 -1.980083670700E-02  2.386698771386E+00
    13    13    12    2.295977282565E+00  2.436999999396E+00  4.711549506325E+00
    14    14    12    4.584654755050E+00  4.712842849093E+00  4.681397624413E+00
    15    15    12    8.044439767200E-02 -8.944497774100E-02  4.658324389905E+00
    16    16    20   -2.404386210818E+00  2.388848861293E+00 -3.991586380800E-02
    17    17    20   -5.430411591000E-03  4.729962030659E+00 -1.469665601400E-02
    18    18    20   -4.720305761652E+00  3.368768138800E-02 -1.894067908000E-02
    19    19    12    7.856359423200E-02 -2.325175023734E+00 -2.304297975480E+00
    20    20    12    2.289485015823E+00 -1.058560779320E-01 -2.347041207135E+00
    21    21    20   -2.320710672151E+00 -4.699984387463E+00 -2.336768829327E+00
    22    22    12    2.300686345336E+00 -2.366935440193E+00 -1.350750597610E-01
    23    23    20    4.707309664336E+00 -2.192208997100E-02 -4.254795854400E-02
    24    24    12    5.288864226600E-02 -4.701278783721E+00 -7.089349710100E-02
    25    25    20   -2.348842651528E+00 -2.324107719721E+00 -4.654201703726E+00
    26    26    12    1.689788117100E-02  4.115220958300E-02 -4.596065482603E+00
    27    27    20   -4.727553826449E+00 -4.674446154138E+00 -4.663280917279E+00
    28    28     8    9.783164514500E-02 -9.014140435500E-02 -2.430173424509E+00
    29    29     8    2.338482302504E+00  2.360957365945E+00 -2.331908016268E+00
    30    30     8   -2.338632127196E+00 -2.337298009133E+00 -2.326398650780E+00
    31    31     8    2.336174259550E+00 -7.540532621400E-02 -8.546594061400E-02
    32    32     8    4.761318449803E+00  2.333537774968E+00 -1.689513760200E-02
    33    33     8    1.066821936880E-01 -2.412819801113E+00 -9.792761871000E-02
    34    34     8    4.762364284678E+00 -5.335212120000E-04  2.320578351393E+00
    35    35     8    7.022498949272E+00  2.248418324722E+00  2.273099731849E+00
    36    36     8    2.346003556023E+00 -2.337956636024E+00  2.338612528629E+00
    37    37     8   -1.520027084400E-02  2.348554785059E+00 -2.546644800900E-02
    38    38     8    2.349468079907E+00  4.678726387877E+00 -4.961433830500E-02
    39    39     8   -2.344083296170E+00  2.635046341000E-03 -1.041740401600E-02
    40    40     8    2.337349099590E+00  2.343711014690E+00  2.435376977039E+00
    41    41     8    4.695874223676E+00  4.669588091960E+00  2.431235155898E+00
    42    42     8   -1.023108455100E-02  2.934239943000E-03  2.387852267693E+00
    43    43     8    4.593043037721E+00  2.435008233387E+00  4.675322999692E+00
    44    44     8    7.114018675241E+00  4.782370262634E+00  4.676572492029E+00
    45    45     8    2.253146536731E+00 -5.950238340400E-02  4.676971367066E+00
    46    46     8    2.192769044000E-03  4.758556773097E+00  2.454332269392E+00
    47    47     8    2.277471451954E+00  7.005244441289E+00  2.435161332607E+00
    48    48     8   -2.353087458742E+00  2.341327688009E+00  2.344642977296E+00
    49    49     8    2.313467466941E+00  4.708947574272E+00  4.759128992069E+00
    50    50     8    4.683433095172E+00  6.886462878135E+00  4.673487511518E+00
    51    51     8    1.112705375050E-01  2.329544543987E+00  4.755646389655E+00
    52    52     8    4.588978327398E+00  4.673691636118E+00  6.902399156437E+00
    53    53     8    7.050768410087E+00  7.101711063060E+00  6.989686044004E+00
    54    54     8    2.252973101418E+00  2.443547811014E+00  6.890018873027E+00

 SYMMETRY CHANGED DURING OLD RUN :  INFORMATION ON SPACE GROUP LOST 
 NUMBER OF SYMMETRY OPERATORS         :    1
 *******************************************************************************
 LATTICE PARAMETERS (ANGSTROMS AND DEGREES) - BOHR = 0.5291772083 ANGSTROM
 PRIMITIVE CELL - CENTRING CODE 1/0 VOLUME=   690.641188 - DENSITY  3.287 g/cm^3
         A              B              C           ALPHA      BETA       GAMMA 
     9.91649528     9.92082131     9.92792732    59.890454  59.961237  60.150698
 *******************************************************************************
 ATOMS IN THE ASYMMETRIC UNIT   54 - ATOMS IN THE UNIT CELL:   54
     ATOM                 X/A                 Y/B                 Z/C    
 *******************************************************************************
      1 T  20 CA   -8.036221807840E-03  4.747587915037E-04  2.566509178232E-03
      2 T  20 CA   -5.171800664666E-03 -4.656317753199E-03  3.378903774226E-01
      3 T  20 CA   -6.174172759866E-03  3.087801780836E-03 -3.313337780885E-01
      4 T  20 CA    1.153381930108E-03  3.361743338428E-01 -4.227778718405E-03
      5 T  20 CA    2.672939306854E-04  3.350587982745E-01  3.331410669095E-01
      6 T  20 CA   -1.983889878104E-03  3.376013442291E-01 -3.328236080331E-01
      7 T  20 CA   -9.389666829707E-04 -3.332987974147E-01 -7.550220704049E-04
      8 T  20 CA   -1.034621093271E-04 -3.353015145110E-01  3.362978921957E-01
      9 T  12 MG    6.763898068048E-03 -3.356050061459E-01 -3.341011404333E-01
     10 T  20 CA    3.380047747897E-01  5.680928062143E-03 -4.772439156642E-03
     11 T  20 CA    3.423792827721E-01  4.432668490316E-03  3.261538860909E-01
     12 T  20 CA    3.359069225687E-01  5.237567908527E-03 -3.392614392437E-01
     13 T  12 MG    3.468898946455E-01  3.261867288440E-01  3.473207410157E-04
     14 T  12 MG    3.440864476539E-01  3.244660064685E-01  3.277144747686E-01
     15 T  12 MG    3.207017161273E-01  3.449977337876E-01 -3.337078294816E-01
     16 T  20 CA    3.380449834155E-01 -3.438259861428E-01  1.834127011500E-03
     17 T  20 CA    3.360063134561E-01 -3.384062594999E-01  3.377489464406E-01
     18 T  20 CA    3.364830195308E-01 -3.390453712211E-01 -3.324700377617E-01
     19 T  12 MG   -3.357009534965E-01  6.551013570391E-03  4.644352699680E-03
     20 T  12 MG   -3.379016170835E-01  2.434142163021E-03  3.233450184748E-01
     21 T  20 CA   -3.365561363291E-01  2.990992010936E-03 -3.331760581067E-01
     22 T  12 MG   -3.416171512586E-01  3.223929640544E-01  4.852660587817E-03
     23 T  20 CA   -3.391146973330E-01  3.328896933692E-01  3.367791663360E-01
     24 T  12 MG   -3.434516602224E-01  3.336170828297E-01 -3.262048105285E-01
     25 T  20 CA   -3.310008041145E-01 -3.338860680168E-01 -1.678110004130E-04
     26 T  12 MG   -3.266088294032E-01 -3.301934914949E-01  3.327484228276E-01
     27 T  20 CA   -3.299043915294E-01 -3.360571002392E-01 -3.364520488498E-01
     28 T   8 O    -1.869768438284E-01 -1.603035905600E-01  1.742983834177E-01
     29 T   8 O    -1.647189929173E-01 -1.687438025456E-01 -4.984472702733E-01
     30 T   8 O    -1.663699207787E-01 -1.658625219440E-01 -1.668150955102E-01
     31 T   8 O    -1.774879528376E-01  1.652067487508E-01  1.671414039828E-01
     32 T   8 O    -1.734626458791E-01  1.707525301812E-01 -4.933440062950E-01
     33 T   8 O    -1.863172069817E-01  1.724725628421E-01 -1.573511514826E-01
     34 T   8 O    -1.726858512616E-01 -4.958404493187E-01  1.732648359607E-01
     35 T   8 O    -1.766128200024E-01 -4.989111307388E-01  4.979213252175E-01
     36 T   8 O    -1.660577185680E-01 -4.996682220953E-01 -1.667193075600E-01
     37 T   8 O     1.664268550067E-01 -1.702145629062E-01  1.681099576657E-01
     38 T   8 O     1.625192232166E-01 -1.699789050852E-01 -4.956675852125E-01
     39 T   8 O     1.660205456670E-01 -1.674366592836E-01 -1.660352789487E-01
     40 T   8 O     1.747028378209E-01  1.731027490666E-01  1.593889416629E-01
     41 T   8 O     1.723552928949E-01  1.746377435292E-01  4.934373615262E-01
     42 T   8 O     1.715210780417E-01  1.697142762076E-01 -1.712476334204E-01
     43 T   8 O     1.809241535472E-01  4.869043696553E-01  1.664143796427E-01
     44 T   8 O     1.689468248416E-01  4.988331878384E-01 -4.868202573999E-01
     45 T   8 O     1.697667297688E-01  4.985281314618E-01 -1.781466738211E-01
     46 T   8 O    -4.861157552644E-01 -1.634504947087E-01  1.637977682961E-01
     47 T   8 O    -4.892577955867E-01 -1.632611311339E-01  4.873476414170E-01
     48 T   8 O    -4.986330281552E-01 -1.663819769025E-01 -1.683910412626E-01
     49 T   8 O    -4.892407822411E-01  1.689721449264E-01  1.601036434600E-01
     50 T   8 O     4.912163162889E-01  1.760648661264E-01  4.902209386788E-01
     51 T   8 O     4.976430768387E-01  1.818098126670E-01 -1.660790356902E-01
     52 T   8 O     4.996580550405E-01  4.862882218767E-01  1.664338917474E-01
     53 T   8 O    -4.962259261179E-01  4.944155603645E-01 -4.914199313394E-01
     54 T   8 O    -4.939609227750E-01  4.783518956914E-01 -1.580066246681E-01

 T = ATOM BELONGING TO THE ASYMMETRIC UNIT
 *******************************************************************************
 * GEOMETRY EDITING - INPUT COORDINATES ARE GIVEN IN ANGSTROM         
 *******************************************************************************

 GCALCO - MAX INDICES DIRECT LATTICE VECTOR    14    14    15
 NO.OF VECTORS CREATED 6999 STARS 3500 RMAX   198.57929 BOHR

 GEOMETRY FOR WAVE FUNCTION - DIMENSIONALITY OF THE SYSTEM    3
 (NON PERIODIC DIRECTION: LATTICE PARAMETER FORMALLY SET TO 500)
 *******************************************************************************
 LATTICE PARAMETERS (ANGSTROMS AND DEGREES) - BOHR = 0.5291772083 ANGSTROM
 PRIMITIVE CELL - CENTRING CODE 1/0 VOLUME=   690.641188 - DENSITY  3.287 g/cm^3
         A              B              C           ALPHA      BETA       GAMMA 
     9.91649528     9.92082131     9.92792732    59.890454  59.961237  60.150698
 *******************************************************************************
 ATOMS IN THE ASYMMETRIC UNIT   54 - ATOMS IN THE UNIT CELL:   54
     ATOM                 X/A                 Y/B                 Z/C    
 *******************************************************************************
      1 T  20 CA   -8.036221807840E-03  4.747587915037E-04  2.566509178232E-03
      2 T  20 CA   -5.171800664666E-03 -4.656317753199E-03  3.378903774226E-01
      3 T  20 CA   -6.174172759866E-03  3.087801780836E-03 -3.313337780885E-01
      4 T  20 CA    1.153381930108E-03  3.361743338428E-01 -4.227778718405E-03
      5 T  20 CA    2.672939306855E-04  3.350587982745E-01  3.331410669095E-01
      6 T  20 CA   -1.983889878104E-03  3.376013442291E-01 -3.328236080331E-01
      7 T  20 CA   -9.389666829707E-04 -3.332987974147E-01 -7.550220704049E-04
      8 T  20 CA   -1.034621093272E-04 -3.353015145110E-01  3.362978921957E-01
      9 T  12 MG    6.763898068048E-03 -3.356050061459E-01 -3.341011404333E-01
     10 T  20 CA    3.380047747897E-01  5.680928062143E-03 -4.772439156642E-03
     11 T  20 CA    3.423792827721E-01  4.432668490316E-03  3.261538860909E-01
     12 T  20 CA    3.359069225687E-01  5.237567908527E-03 -3.392614392437E-01
     13 T  12 MG    3.468898946455E-01  3.261867288440E-01  3.473207410157E-04
     14 T  12 MG    3.440864476539E-01  3.244660064685E-01  3.277144747686E-01
     15 T  12 MG    3.207017161273E-01  3.449977337876E-01 -3.337078294816E-01
     16 T  20 CA    3.380449834155E-01 -3.438259861428E-01  1.834127011500E-03
     17 T  20 CA    3.360063134561E-01 -3.384062594999E-01  3.377489464406E-01
     18 T  20 CA    3.364830195308E-01 -3.390453712211E-01 -3.324700377617E-01
     19 T  12 MG   -3.357009534965E-01  6.551013570392E-03  4.644352699680E-03
     20 T  12 MG   -3.379016170835E-01  2.434142163021E-03  3.233450184748E-01
     21 T  20 CA   -3.365561363291E-01  2.990992010936E-03 -3.331760581067E-01
     22 T  12 MG   -3.416171512586E-01  3.223929640544E-01  4.852660587817E-03
     23 T  20 CA   -3.391146973330E-01  3.328896933692E-01  3.367791663360E-01
     24 T  12 MG   -3.434516602224E-01  3.336170828297E-01 -3.262048105285E-01
     25 T  20 CA   -3.310008041145E-01 -3.338860680168E-01 -1.678110004129E-04
     26 T  12 MG   -3.266088294032E-01 -3.301934914949E-01  3.327484228276E-01
     27 T  20 CA   -3.299043915294E-01 -3.360571002392E-01 -3.364520488498E-01
     28 T   8 O    -1.869768438284E-01 -1.603035905600E-01  1.742983834177E-01
     29 T   8 O    -1.647189929173E-01 -1.687438025456E-01 -4.984472702733E-01
     30 T   8 O    -1.663699207787E-01 -1.658625219440E-01 -1.668150955102E-01
     31 T   8 O    -1.774879528376E-01  1.652067487508E-01  1.671414039828E-01
     32 T   8 O    -1.734626458791E-01  1.707525301812E-01 -4.933440062950E-01
     33 T   8 O    -1.863172069817E-01  1.724725628421E-01 -1.573511514826E-01
     34 T   8 O    -1.726858512616E-01 -4.958404493187E-01  1.732648359607E-01
     35 T   8 O    -1.766128200024E-01 -4.989111307388E-01  4.979213252175E-01
     36 T   8 O    -1.660577185680E-01 -4.996682220953E-01 -1.667193075599E-01
     37 T   8 O     1.664268550067E-01 -1.702145629062E-01  1.681099576657E-01
     38 T   8 O     1.625192232166E-01 -1.699789050852E-01 -4.956675852125E-01
     39 T   8 O     1.660205456670E-01 -1.674366592836E-01 -1.660352789487E-01
     40 T   8 O     1.747028378209E-01  1.731027490666E-01  1.593889416629E-01
     41 T   8 O     1.723552928949E-01  1.746377435292E-01  4.934373615262E-01
     42 T   8 O     1.715210780417E-01  1.697142762076E-01 -1.712476334204E-01
     43 T   8 O     1.809241535472E-01  4.869043696553E-01  1.664143796427E-01
     44 T   8 O     1.689468248416E-01  4.988331878384E-01 -4.868202573999E-01
     45 T   8 O     1.697667297688E-01  4.985281314618E-01 -1.781466738211E-01
     46 T   8 O    -4.861157552644E-01 -1.634504947087E-01  1.637977682961E-01
     47 T   8 O    -4.892577955867E-01 -1.632611311339E-01  4.873476414170E-01
     48 T   8 O    -4.986330281552E-01 -1.663819769025E-01 -1.683910412626E-01
     49 T   8 O    -4.892407822411E-01  1.689721449264E-01  1.601036434600E-01
     50 T   8 O     4.912163162889E-01  1.760648661264E-01  4.902209386788E-01
     51 T   8 O     4.976430768387E-01  1.818098126670E-01 -1.660790356902E-01
     52 T   8 O     4.996580550405E-01  4.862882218767E-01  1.664338917474E-01
     53 T   8 O    -4.962259261179E-01  4.944155603645E-01 -4.914199313394E-01
     54 T   8 O    -4.939609227750E-01  4.783518956914E-01 -1.580066246681E-01

 T = ATOM BELONGING TO THE ASYMMETRIC UNIT

 ****    1 SYMMOPS - TRANSLATORS IN FRACTIONAL UNITS
 **** MATRICES AND TRANSLATORS IN THE CRYSTALLOGRAPHIC REFERENCE FRAME
   V INV                    ROTATION MATRICES                   TRANSLATORS
   1   1  1.00  0.00  0.00  0.00  1.00  0.00  0.00  0.00  1.00  0.00  0.00  0.00

 DIRECT LATTICE VECTORS CARTESIAN COMPONENTS (ANGSTROM)
          X                    Y                    Z
   0.408632977373E-03   0.702323572607E+01   0.700078841762E+01
   0.703092528281E+01  -0.528820030090E-02   0.699919689292E+01
   0.702812380599E+01   0.701207494704E+01   0.463739871796E-02


 CARTESIAN COORDINATES - PRIMITIVE CELL
 *******************************************************************************
 *      ATOM          X(ANGSTROM)         Y(ANGSTROM)         Z(ANGSTROM)
 *******************************************************************************
    1    20 CA    2.137245397900E-02 -3.844623601300E-02 -5.292505636900E-02
    2    20 CA    2.341995069795E+00  2.333014498716E+00 -6.723023453900E-02
    3    20 CA   -2.306947232874E+00 -2.366716284063E+00 -2.314847135300E-02
    4    20 CA    2.333903742300E+00 -2.332278526900E-02  2.361005329874E+00
    5    20 CA    4.697130148341E+00  2.336115539352E+00  2.348558676039E+00
    6    20 CA    3.452349315500E-02 -2.349502713471E+00  2.347506050520E+00
    7    20 CA   -2.348705713753E+00 -1.012630489700E-02 -2.339400915696E+00
    8    20 CA    6.063284027000E-03  2.359192527395E+00 -2.346006087479E+00
    9    12 MG   -4.707715137484E+00 -2.293463039556E+00 -2.303162257212E+00
   10    20 CA    6.539007390000E-03  2.340392466953E+00  2.406039714786E+00
   11    20 CA    2.323555559676E+00  4.691602463330E+00  2.429462542402E+00
   12    20 CA   -2.347409186329E+00 -1.980083670700E-02  2.386698771386E+00
   13    12 MG    2.295977282565E+00  2.436999999396E+00  4.711549506325E+00
   14    12 MG    4.584654755050E+00  4.712842849093E+00  4.681397624413E+00
   15    12 MG    8.044439767200E-02 -8.944497774100E-02  4.658324389905E+00
   16    20 CA   -2.404386210818E+00  2.388848861293E+00 -3.991586380800E-02
   17    20 CA   -5.430411591001E-03  4.729962030659E+00 -1.469665601400E-02
   18    20 CA   -4.720305761652E+00  3.368768138800E-02 -1.894067908000E-02
   19    12 MG    7.856359423200E-02 -2.325175023734E+00 -2.304297975480E+00
   20    12 MG    2.289485015823E+00 -1.058560779320E-01 -2.347041207135E+00
   21    20 CA   -2.320710672151E+00 -4.699984387463E+00 -2.336768829327E+00
   22    12 MG    2.300686345336E+00 -2.366935440193E+00 -1.350750597610E-01
   23    20 CA    4.707309664336E+00 -2.192208997100E-02 -4.254795854400E-02
   24    12 MG    5.288864226600E-02 -4.701278783721E+00 -7.089349710100E-02
   25    20 CA   -2.348842651528E+00 -2.324107719721E+00 -4.654201703726E+00
   26    12 MG    1.689788117100E-02  4.115220958300E-02 -4.596065482603E+00
   27    20 CA   -4.727553826449E+00 -4.674446154138E+00 -4.663280917279E+00
   28     8 O     9.783164514500E-02 -9.014140435500E-02 -2.430173424509E+00
   29     8 O     2.338482302504E+00  2.360957365945E+00 -2.331908016268E+00
   30     8 O    -2.338632127196E+00 -2.337298009133E+00 -2.326398650780E+00
   31     8 O     2.336174259550E+00 -7.540532621400E-02 -8.546594061400E-02
   32     8 O     4.761318449803E+00  2.333537774968E+00 -1.689513760200E-02
   33     8 O     1.066821936880E-01 -2.412819801113E+00 -9.792761871000E-02
   34     8 O     4.762364284678E+00 -5.335212120005E-04  2.320578351393E+00
   35     8 O     7.022498949272E+00  2.248418324722E+00  2.273099731849E+00
   36     8 O     2.346003556023E+00 -2.337956636024E+00  2.338612528629E+00
   37     8 O    -1.520027084400E-02  2.348554785059E+00 -2.546644800900E-02
   38     8 O     2.349468079907E+00  4.678726387877E+00 -4.961433830500E-02
   39     8 O    -2.344083296170E+00  2.635046341000E-03 -1.041740401600E-02
   40     8 O     2.337349099590E+00  2.343711014690E+00  2.435376977039E+00
   41     8 O     4.695874223676E+00  4.669588091960E+00  2.431235155898E+00
   42     8 O    -1.023108455100E-02  2.934239943000E-03  2.387852267693E+00
   43     8 O     4.593043037721E+00  2.435008233387E+00  4.675322999692E+00
   44     8 O     7.114018675241E+00  4.782370262634E+00  4.676572492029E+00
   45     8 O     2.253146536731E+00 -5.950238340400E-02  4.676971367066E+00
   46     8 O     2.192769044000E-03  4.758556773097E+00  2.454332269392E+00
   47     8 O     2.277471451954E+00  7.005244441289E+00  2.435161332607E+00
   48     8 O    -2.353087458742E+00  2.341327688009E+00  2.344642977296E+00
   49     8 O     2.313467466941E+00  4.708947574272E+00  4.759128992069E+00
   50     8 O     4.683433095172E+00  6.886462878135E+00  4.673487511518E+00
   51     8 O     1.112705375050E-01  2.329544543987E+00  4.755646389655E+00
   52     8 O     4.588978327398E+00  4.673691636118E+00  6.902399156437E+00
   53     8 O     7.050768410087E+00  7.101711063060E+00  6.989686044004E+00
   54     8 O     2.252973101418E+00  2.443547811014E+00  6.890018873027E+00
 WARNING **** CRYSTA **** TESTGEOM  DIRECTIVE - GEOMETRY EDITING COMPLETE
 TTTTTTTTTTTTTTTTTTTTTTTTTTTTTT END         TELAPSE        0.01 TCPU        0.01
 EEEEEEEEEE TERMINATION  DATE 10 03 2023 TIME 10:30:24.2
Fri 10 Mar 2023 10:30:24 GMT
Contents of temporary directory:
total 8
-rw-r--r--  1 brunocamino  admin  4027 10 Mar 10:30 fort.34
SCF abnormal end - no wf written in fort.9
geometry input file fort.34 saved as /Users/brunocamino/Desktop/Imperial/cmsg_icl/solid-solutions/./data/crystal/testgeom_opt/CaMgO_testgeom_1949.gui
temporary directory /Users/brunocamino/crystal/tmp removed
