date Fri 10 Mar 2023 10:28:09 GMT
hostname MacBook-Pro-8
system Darwin MacBook-Pro-8 21.6.0 Darwin Kernel Version 21.6.0: Mon Aug 22 20:20:05 PDT 2022; root:xnu-8020.140.49~2/RELEASE_ARM64_T8101 arm64
user brunocamino
output data in /Users/brunocamino/Desktop/Imperial/cmsg_icl/solid-solutions/./data/crystal/testgeom_opt/CaMgO_testgeom_311.out
crystal executable in /Users/brunocamino/crystal
input data in /Users/brunocamino/Desktop/Imperial/cmsg_icl/solid-solutions/./data/crystal/testgeom_opt/CaMgO_testgeom_311.d12
temporary directory /Users/brunocamino/crystal/tmp
external geometry input from /Users/brunocamino/Desktop/Imperial/cmsg_icl/solid-solutions/./data/crystal/testgeom_opt/CaMgO_testgeom_311.gui
external geometry input saved in /Users/brunocamino/Desktop/Imperial/cmsg_icl/solid-solutions/./data/crystal/testgeom_opt/CaMgO_testgeom_311_inp.gui
Bulk 
EXTERNAL
EXTPRT
TESTGEOM
END

         
 *******************************************************************************
 *                                                                             *
 *                               CRYSTAL17                                     *
 *                      public : 1.0.1 - Feb 1st, 2017                         *
 *                       HTTP://WWW.CRYSTAL.UNITO.IT                           *
 *                                                                             *
 *                              MAIN AUTHORS                                   *
 *                                                                             *
 *  R. DOVESI(1,11), V.R. SAUNDERS(2), C. ROETTI(1,11), R. ORLANDO(1,11),      *
 *  C.M. ZICOVICH-WILSON(1,3), F. PASCALE(4), B. CIVALLERI(1,11),              *
 *  K. DOLL(5), N.M. HARRISON(2,6), I.J. BUSH(7), Ph. D'ARCO(8),               *
 *  M. LLUNELL(9), M. CAUSA'(10), Y. NOEL(8), L. MASCHIO(1,11), A. ERBA(1,11)  *
 *  M. RE'RAT(14), S. CASASSA(1,11)                                            *
 *                                                                             *
 *        CONTRIBUTIONS TO THE CODE HAVE ALSO BEEN GIVEN BY                    *
 *                                                                             *
 *  M. FERRABONE(1,11), M. DE LA PIERRE(1,11), M. FERRERO(1,11),               *
 *  J. BAIMA(1,11), E. ALBANESE(1,11), M.F. PEINTINGER(12), R. BAST(13),       *
 *  B. KIRTMAN(15), V. LACIVITA(1,11), R. DEMICHELIS(1,16)                     *
 *  G. BRANDEBURG(17), S. SALUSTRO(1,11), G. SANSONE(1,11)                     *
 *  M.T. RUGGIERO(18)                                                          *
 *                                                                             *
 * (1) THEORETICAL CHEMISTRY GROUP - UNIVERSITA' DI TORINO - TORINO (ITALY)    *

 * (2) COMPUTATIONAL SCIENCE & ENGINEERING DEPARTMENT - STFC DARESBURY (UK)    *
 * (3) UNIVERSIDAD AUTONOMA DEL ESTADO DE MORELOS - CUERNAVACA (MEXICO)        *
 * (4) UNIVERSITE' DE LORRAINE - NANCY (FRANCE)                                *
 * (5) UNIVERSITAET STUTTGART- STUTTGART (GERMANY)                             *
 * (6) IMPERIAL COLLEGE - LONDON (UK)                                          *
 * (7) OXFORD E-RESEARCH CENTRE - OXFORD (UK)                                  *
 * (8) UPMC - SORBONNE UNIVERSITES - PARIS (FRANCE)                            *
 * (9) UNIVERSIDAD DE BARCELONA - BARCELONA (SPAIN)                            *
 *(10) UNIVERSITA' DI NAPOLI "FEDERICO II" - NAPOLI (ITALY)                    *
 *(11) NIS - NANOSTRUCTURED INTERFACES AND SURFACES - TORINO (ITALY)           *
 *(12) MPI FUER CHEMISCHE ENERGIEKONVERSION - MUELHEIM AN DER RUHR (GERMANY)   *
 *(13) UNIVERSITY OF TROMSO - TROMSO (NORWAY)                                  *
 *(14) UNIVERSITE' DE PAU ET DES PAYS DE L'ADOUR - PAU (FRANCE)                *
 *(15) UNIVERSITY OF CALIFORNIA SANTA BARBARA - SANTA BARBARA (USA)            *
 *(16) CURTIN UNIVERSITY - PERTH (AUSTRALIA)                                   *
 *(17) UNIVERSITY COLLEGE LONDON - LONDON (UK)                                 *
 *(18) CAMBRIDGE UNIVERSITY - CAMBRIDGE (UK)                                   *
 *                                                                             *
 *******************************************************************************
 EEEEEEEEEE STARTING  DATE 10 03 2023 TIME 10:28:09.8
 Bulk                                                                            

 GEOMETRY INPUT FROM EXTERNAL FILE (FORTRAN UNIT 34)
 3D - CRYSTAL 

 *******************************************************************************
 LATTICE PARAMETERS  (ANGSTROMS AND DEGREES) - PRIMITIVE CELL
       A          B          C        ALPHA      BETA     GAMMA        VOLUME
    9.91685    9.92789    9.89427    60.00912  60.14206  59.98745    689.528627
 INFORMATION **** CHKGRP **** SPGR WITH NO INVERSION

 NUMBER OF IRREDUCIBLE ATOMS IN THE CELL:   54

 CARTESIAN COORDINATES (ANGSTROM) - IRREDUCIBLE ATOMS AND SYMMETRY RELATED

 AT.IRR.  AT  AT.N.          X                   Y                   Z
     1     1    20    2.585603917100E-02 -2.470026663900E-02 -2.240344276000E-02
     2     2    20    2.338548594013E+00  2.302349615661E+00 -3.626258688300E-02
     3     3    20   -2.329748067966E+00 -2.325688156220E+00 -1.452598325000E-03
     4     4    20    2.348330758391E+00 -8.287421778000E-03  2.313542732279E+00
     5     5    20    4.692692315195E+00  2.303656515114E+00  2.352911588236E+00
     6     6    20    3.297180261000E-03 -2.327154594383E+00  2.381401770006E+00
     7     7    20   -2.320209286801E+00 -7.236966745000E-03 -2.354838038288E+00
     8     8    20   -8.348072395000E-03  2.322712066361E+00 -2.347753062615E+00
     9     9    20   -4.711229934889E+00 -2.305575170140E+00 -2.307433872401E+00
    10    10    20   -4.440144874000E-03  2.375172934612E+00  2.369815192641E+00
    11    11    20    2.289352022552E+00  4.708051446936E+00  2.347532211444E+00
    12    12    20   -2.382369827616E+00 -3.481266166000E-03  2.387928030309E+00
    13    13    20    2.321829557768E+00  2.370654107927E+00  4.751809836124E+00
    14    14    12    4.740626755286E+00  4.778685562432E+00  4.784006129272E+00
    15    15    12    9.196967570000E-04 -6.729410003700E-02  4.734760515471E+00
    16    16    20   -2.360241881271E+00  2.396331387606E+00 -1.182928645000E-02
    17    17    12    2.881110665300E-02  4.790817117626E+00 -1.021426638490E-01
    18    18    12   -4.749104594624E+00 -4.163563997100E-02 -1.960270388900E-02
    19    19    12    4.811083602600E-02 -2.246474479235E+00 -2.333914821800E+00
    20    20    12    2.253489700154E+00 -1.090632536520E-01 -2.319991196460E+00
    21    21    20   -2.300777394344E+00 -4.716974545534E+00 -2.301582335541E+00
    22    22    12    2.330136473644E+00 -2.250635006226E+00 -9.774208735800E-02
    23    23    12    4.694646107765E+00 -1.116162517490E-01 -6.652693940600E-02
    24    24    20    2.474437784200E-02 -4.730101034706E+00 -3.895270461300E-02
    25    25    20   -2.307677749584E+00 -2.299681620451E+00 -4.747623459000E+00
    26    26    12    1.533755833200E-02 -6.475079774600E-02 -4.678882330205E+00
    27    27    20   -4.690072893502E+00 -4.703593740963E+00 -4.714544262924E+00
    28    28     8    8.879014888200E-02 -1.186700783350E-01 -2.393620218232E+00
    29    29     8    2.330808416394E+00  2.223441558158E+00 -2.333505687750E+00
    30    30     8   -2.282281999245E+00 -2.333657338194E+00 -2.341104873197E+00
    31    31     8    2.424560804246E+00 -1.097973474200E-01 -8.246370071200E-02
    32    32     8    4.675756097161E+00  2.220775893565E+00 -5.979307319000E-03
    33    33     8    1.054753402510E-01 -2.329994114328E+00 -4.246631210900E-02
    34    34     8    4.793912650500E+00 -1.150875186700E-02  2.300971731362E+00
    35    35     8    7.009343464781E+00  2.241182658628E+00  2.346085362863E+00
    36    36     8    2.343450390210E+00 -2.329866801568E+00  2.310642726586E+00
    37    37     8    2.492513152000E-03  2.418518617023E+00 -1.059761564400E-02
    38    38     8    2.257453394766E+00  4.756943004351E+00  9.220002237000E-03
    39    39     8   -2.413103595669E+00  4.727990381000E-03  3.374120420000E-03
    40    40     8    2.340106484937E+00  2.334049819317E+00  2.355412167064E+00
    41    41     8    4.669951380186E+00  4.659358542894E+00  2.393312724381E+00
    42    42     8   -6.893921954000E-03  5.119431605000E-03  2.376536392741E+00
    43    43     8    4.680753066012E+00  2.409991273071E+00  4.696819359760E+00
    44    44     8    6.926851862997E+00  4.761807945007E+00  4.794453583141E+00
    45    45     8    2.229568407831E+00 -9.920967607000E-03  4.745886186579E+00
    46    46     8   -6.868148571000E-03  4.783738039370E+00  2.363816820243E+00
    47    47     8    2.209296567339E+00  6.986588106227E+00  2.343949197640E+00
    48    48     8   -2.337446993800E+00  2.339984717813E+00  2.342315065021E+00
    49    49     8    2.286154942360E+00  4.782312567779E+00  4.776558475572E+00
    50    50     8    4.696911696513E+00  6.882969772313E+00  4.763893114946E+00
    51    51     8   -3.249407930000E-04  2.331055591090E+00  4.687693341803E+00
    52    52     8    4.664427365686E+00  4.775599983137E+00  6.916601742393E+00
    53    53     8    7.069602999196E+00  6.859579869259E+00  6.974418909423E+00
    54    54     8    2.341383617537E+00  2.326826958714E+00  7.020632076002E+00

 SYMMETRY CHANGED DURING OLD RUN :  INFORMATION ON SPACE GROUP LOST 
 NUMBER OF SYMMETRY OPERATORS         :    1
 *******************************************************************************
 LATTICE PARAMETERS (ANGSTROMS AND DEGREES) - BOHR = 0.5291772083 ANGSTROM
 PRIMITIVE CELL - CENTRING CODE 1/0 VOLUME=   689.528627 - DENSITY  3.292 g/cm^3
         A              B              C           ALPHA      BETA       GAMMA 
     9.91685086     9.92789269     9.89426769    60.009120  60.142060  59.987451
 *******************************************************************************
 ATOMS IN THE ASYMMETRIC UNIT   54 - ATOMS IN THE UNIT CELL:   54
     ATOM                 X/A                 Y/B                 Z/C    
 *******************************************************************************
      1 T  20 CA   -5.197367069256E-03  2.009449407827E-03  1.674396375738E-03
      2 T  20 CA   -4.592618477904E-03 -6.184246244398E-04  3.342734112655E-01
      3 T  20 CA   -3.840135394939E-04  2.271907949079E-04 -3.326291699577E-01
      4 T  20 CA   -2.986249295498E-03  3.323573125836E-01  2.353514459481E-03
      5 T  20 CA   -1.924265966729E-03  3.368503040173E-01  3.323430919752E-01
      6 T  20 CA    3.137530172737E-03  3.359428892685E-01 -3.358144132349E-01
      7 T  20 CA   -3.061915007046E-03 -3.321866544642E-01  1.484263208514E-03
      8 T  20 CA   -7.003153430213E-04 -3.335900604053E-01  3.327400116669E-01
      9 T  20 CA    6.343089689759E-03 -3.347954857931E-01 -3.370422191458E-01
     10 T  20 CA    3.385501848709E-01 -1.287659131897E-03  8.613106348858E-04
     11 T  20 CA    3.403160602571E-01 -6.276288222903E-03  3.331275520038E-01
     12 T  20 CA    3.392054395843E-01  6.866475955617E-04 -3.403905409281E-01
     13 T  20 CA    3.422746631998E-01  3.341027336433E-01 -2.964885240305E-03
     14 T  12 MG    3.443900202276E-01  3.365189473156E-01  3.397244916802E-01
     15 T  12 MG    3.321377931641E-01  3.418667051538E-01 -3.418834711372E-01
     16 T  20 CA    3.381394736721E-01 -3.399429909894E-01  3.744259706539E-03
     17 T  12 MG    3.326840154303E-01 -3.473953848117E-01  3.520639271052E-01
     18 T  12 MG    3.334958317518E-01 -3.363527769630E-01 -3.406882671495E-01
     19 T  12 MG   -3.299142923086E-01 -2.241732440471E-03  8.907748307795E-03
     20 T  12 MG   -3.332352838103E-01  3.016319454579E-03  3.182991808854E-01
     21 T  20 CA   -3.368696418216E-01  9.371077239226E-03 -3.378535513433E-01
     22 T  12 MG   -3.333958014194E-01  3.195959785189E-01  1.233111381095E-02
     23 T  12 MG   -3.466922397921E-01  3.372931775059E-01  3.319689059026E-01
     24 T  20 CA   -3.422025042359E-01  3.368272740308E-01 -3.338496493689E-01
     25 T  20 CA   -3.379169431639E-01 -3.378668543652E-01  8.754646172727E-03
     26 T  12 MG   -3.387434616918E-01 -3.273017099771E-01  3.296190880063E-01
     27 T  20 CA   -3.376818371976E-01 -3.333410688834E-01 -3.356886699287E-01
     28 T   8 O    -1.851595785405E-01 -1.555712461605E-01  1.682862213254E-01
     29 T   8 O    -1.731864205625E-01 -1.590387884084E-01  4.916490791923E-01
     30 T   8 O    -1.708597546194E-01 -1.623500104750E-01 -1.632168911816E-01
     31 T   8 O    -1.861970958329E-01  1.744968579506E-01  1.711404341986E-01
     32 T   8 O    -1.745353490948E-01  1.736715523090E-01  4.931675122294E-01
     33 T   8 O    -1.768586232865E-01  1.708984207908E-01 -1.561319720946E-01
     34 T   8 O    -1.780958853931E-01 -4.942874479617E-01  1.776427031034E-01
     35 T   8 O    -1.716824278360E-01 -4.943278738957E-01  4.937781378014E-01
     36 T   8 O    -1.685769609710E-01  4.976182795447E-01 -1.638736061803E-01
     37 T   8 O     1.717201057513E-01 -1.733152788563E-01  1.739527114039E-01
     38 T   8 O     1.796410472858E-01 -1.784666287972E-01 -4.991547496768E-01
     39 T   8 O     1.722519956372E-01 -1.718063814819E-01 -1.722074628804E-01
     40 T   8 O     1.677923457587E-01  1.674549029081E-01  1.663551338356E-01
     41 T   8 O     1.707366490810E-01  1.698558729000E-01  4.963688245779E-01
     42 T   8 O     1.700112089183E-01  1.682929396701E-01 -1.693454370922E-01
     43 T   8 O     1.733489634805E-01  4.952327803102E-01  1.722016094602E-01
     44 T   8 O     1.883951874967E-01  4.940328817651E-01  4.938785687428E-01
     45 T   8 O     1.784736786591E-01  4.971444146550E-01 -1.794365897581E-01
     46 T   8 O    -4.897628451784E-01 -1.739148051774E-01  1.734231200404E-01
     47 T   8 O    -4.915848289692E-01 -1.749681980983E-01  4.906722622854E-01
     48 T   8 O    -4.999431630457E-01 -1.667411287253E-01 -1.662841348628E-01
     49 T   8 O    -4.812638045706E-01  1.610773338422E-01  1.652549610161E-01
     50 T   8 O     4.962877951175E-01  1.816820573934E-01  4.885750893299E-01
     51 T   8 O    -4.999118401188E-01  1.671303239410E-01 -1.670437003160E-01
     52 T   8 O    -4.986169690437E-01  4.831039580225E-01  1.822129905277E-01
     53 T   8 O     4.831578870573E-01 -4.904807368757E-01  4.989228598074E-01
     54 T   8 O     4.992433309362E-01 -4.998929665499E-01 -1.662537505634E-01

 T = ATOM BELONGING TO THE ASYMMETRIC UNIT
 *******************************************************************************
 * GEOMETRY EDITING - INPUT COORDINATES ARE GIVEN IN ANGSTROM         
 *******************************************************************************

 GCALCO - MAX INDICES DIRECT LATTICE VECTOR    14    14    15
 NO.OF VECTORS CREATED 6999 STARS 3500 RMAX   198.49541 BOHR

 GEOMETRY FOR WAVE FUNCTION - DIMENSIONALITY OF THE SYSTEM    3
 (NON PERIODIC DIRECTION: LATTICE PARAMETER FORMALLY SET TO 500)
 *******************************************************************************
 LATTICE PARAMETERS (ANGSTROMS AND DEGREES) - BOHR = 0.5291772083 ANGSTROM
 PRIMITIVE CELL - CENTRING CODE 1/0 VOLUME=   689.528627 - DENSITY  3.292 g/cm^3
         A              B              C           ALPHA      BETA       GAMMA 
     9.91685086     9.92789269     9.89426769    60.009120  60.142060  59.987451
 *******************************************************************************
 ATOMS IN THE ASYMMETRIC UNIT   54 - ATOMS IN THE UNIT CELL:   54
     ATOM                 X/A                 Y/B                 Z/C    
 *******************************************************************************
      1 T  20 CA   -5.197367069256E-03  2.009449407827E-03  1.674396375738E-03
      2 T  20 CA   -4.592618477904E-03 -6.184246244399E-04  3.342734112655E-01
      3 T  20 CA   -3.840135394939E-04  2.271907949081E-04 -3.326291699577E-01
      4 T  20 CA   -2.986249295498E-03  3.323573125836E-01  2.353514459480E-03
      5 T  20 CA   -1.924265966729E-03  3.368503040173E-01  3.323430919752E-01
      6 T  20 CA    3.137530172737E-03  3.359428892685E-01 -3.358144132349E-01
      7 T  20 CA   -3.061915007046E-03 -3.321866544642E-01  1.484263208514E-03
      8 T  20 CA   -7.003153430214E-04 -3.335900604053E-01  3.327400116669E-01
      9 T  20 CA    6.343089689759E-03 -3.347954857931E-01 -3.370422191458E-01
     10 T  20 CA    3.385501848709E-01 -1.287659131897E-03  8.613106348857E-04
     11 T  20 CA    3.403160602571E-01 -6.276288222903E-03  3.331275520038E-01
     12 T  20 CA    3.392054395843E-01  6.866475955618E-04 -3.403905409281E-01
     13 T  20 CA    3.422746631998E-01  3.341027336433E-01 -2.964885240305E-03
     14 T  12 MG    3.443900202276E-01  3.365189473156E-01  3.397244916802E-01
     15 T  12 MG    3.321377931641E-01  3.418667051538E-01 -3.418834711372E-01
     16 T  20 CA    3.381394736721E-01 -3.399429909894E-01  3.744259706539E-03
     17 T  12 MG    3.326840154303E-01 -3.473953848117E-01  3.520639271052E-01
     18 T  12 MG    3.334958317518E-01 -3.363527769630E-01 -3.406882671495E-01
     19 T  12 MG   -3.299142923086E-01 -2.241732440471E-03  8.907748307795E-03
     20 T  12 MG   -3.332352838103E-01  3.016319454579E-03  3.182991808854E-01
     21 T  20 CA   -3.368696418216E-01  9.371077239227E-03 -3.378535513433E-01
     22 T  12 MG   -3.333958014194E-01  3.195959785189E-01  1.233111381095E-02
     23 T  12 MG   -3.466922397921E-01  3.372931775059E-01  3.319689059026E-01
     24 T  20 CA   -3.422025042359E-01  3.368272740308E-01 -3.338496493689E-01
     25 T  20 CA   -3.379169431639E-01 -3.378668543652E-01  8.754646172727E-03
     26 T  12 MG   -3.387434616918E-01 -3.273017099771E-01  3.296190880063E-01
     27 T  20 CA   -3.376818371976E-01 -3.333410688834E-01 -3.356886699287E-01
     28 T   8 O    -1.851595785405E-01 -1.555712461605E-01  1.682862213254E-01
     29 T   8 O    -1.731864205625E-01 -1.590387884084E-01  4.916490791923E-01
     30 T   8 O    -1.708597546194E-01 -1.623500104750E-01 -1.632168911816E-01
     31 T   8 O    -1.861970958329E-01  1.744968579506E-01  1.711404341986E-01
     32 T   8 O    -1.745353490948E-01  1.736715523090E-01  4.931675122294E-01
     33 T   8 O    -1.768586232865E-01  1.708984207908E-01 -1.561319720946E-01
     34 T   8 O    -1.780958853931E-01 -4.942874479617E-01  1.776427031034E-01
     35 T   8 O    -1.716824278360E-01 -4.943278738957E-01  4.937781378014E-01
     36 T   8 O    -1.685769609710E-01  4.976182795447E-01 -1.638736061803E-01
     37 T   8 O     1.717201057513E-01 -1.733152788563E-01  1.739527114039E-01
     38 T   8 O     1.796410472858E-01 -1.784666287972E-01 -4.991547496768E-01
     39 T   8 O     1.722519956372E-01 -1.718063814819E-01 -1.722074628804E-01
     40 T   8 O     1.677923457587E-01  1.674549029081E-01  1.663551338356E-01
     41 T   8 O     1.707366490810E-01  1.698558729000E-01  4.963688245779E-01
     42 T   8 O     1.700112089183E-01  1.682929396701E-01 -1.693454370922E-01
     43 T   8 O     1.733489634805E-01  4.952327803102E-01  1.722016094602E-01
     44 T   8 O     1.883951874967E-01  4.940328817651E-01  4.938785687428E-01
     45 T   8 O     1.784736786591E-01  4.971444146550E-01 -1.794365897581E-01
     46 T   8 O    -4.897628451784E-01 -1.739148051774E-01  1.734231200404E-01
     47 T   8 O    -4.915848289692E-01 -1.749681980983E-01  4.906722622854E-01
     48 T   8 O    -4.999431630457E-01 -1.667411287253E-01 -1.662841348628E-01
     49 T   8 O    -4.812638045706E-01  1.610773338422E-01  1.652549610161E-01
     50 T   8 O     4.962877951175E-01  1.816820573934E-01  4.885750893299E-01
     51 T   8 O    -4.999118401188E-01  1.671303239410E-01 -1.670437003160E-01
     52 T   8 O    -4.986169690437E-01  4.831039580225E-01  1.822129905277E-01
     53 T   8 O     4.831578870573E-01 -4.904807368757E-01  4.989228598074E-01
     54 T   8 O     4.992433309362E-01 -4.998929665499E-01 -1.662537505634E-01

 T = ATOM BELONGING TO THE ASYMMETRIC UNIT

 ****    1 SYMMOPS - TRANSLATORS IN FRACTIONAL UNITS
 **** MATRICES AND TRANSLATORS IN THE CRYSTALLOGRAPHIC REFERENCE FRAME
   V INV                    ROTATION MATRICES                   TRANSLATORS
   1   1  1.00  0.00  0.00  0.00  1.00  0.00  0.00  0.00  1.00  0.00  0.00  0.00

 DIRECT LATTICE VECTORS CARTESIAN COMPONENTS (ANGSTROM)
          X                    Y                    Z
  -0.426140638809E-02   0.699790766618E+01   0.702660665138E+01
   0.701601121729E+01  -0.115125388647E-01   0.702413747459E+01
   0.700883713195E+01   0.698374784653E+01   0.105254031272E-02


 CARTESIAN COORDINATES - PRIMITIVE CELL
 *******************************************************************************
 *      ATOM          X(ANGSTROM)         Y(ANGSTROM)         Z(ANGSTROM)
 *******************************************************************************
    1    20 CA    2.585603917100E-02 -2.470026663900E-02 -2.240344276000E-02
    2    20 CA    2.338548594013E+00  2.302349615661E+00 -3.626258688300E-02
    3    20 CA   -2.329748067966E+00 -2.325688156220E+00 -1.452598325000E-03
    4    20 CA    2.348330758391E+00 -8.287421778000E-03  2.313542732279E+00
    5    20 CA    4.692692315195E+00  2.303656515114E+00  2.352911588236E+00
    6    20 CA    3.297180261000E-03 -2.327154594383E+00  2.381401770006E+00
    7    20 CA   -2.320209286801E+00 -7.236966745000E-03 -2.354838038288E+00
    8    20 CA   -8.348072395000E-03  2.322712066361E+00 -2.347753062615E+00
    9    20 CA   -4.711229934889E+00 -2.305575170140E+00 -2.307433872401E+00
   10    20 CA   -4.440144874000E-03  2.375172934612E+00  2.369815192641E+00
   11    20 CA    2.289352022552E+00  4.708051446936E+00  2.347532211444E+00
   12    20 CA   -2.382369827616E+00 -3.481266166000E-03  2.387928030309E+00
   13    20 CA    2.321829557768E+00  2.370654107927E+00  4.751809836124E+00
   14    12 MG    4.740626755286E+00  4.778685562432E+00  4.784006129272E+00
   15    12 MG    9.196967569996E-04 -6.729410003700E-02  4.734760515471E+00
   16    20 CA   -2.360241881271E+00  2.396331387606E+00 -1.182928645000E-02
   17    12 MG    2.881110665300E-02  4.790817117626E+00 -1.021426638490E-01
   18    12 MG   -4.749104594624E+00 -4.163563997100E-02 -1.960270388900E-02
   19    12 MG    4.811083602600E-02 -2.246474479235E+00 -2.333914821800E+00
   20    12 MG    2.253489700154E+00 -1.090632536520E-01 -2.319991196460E+00
   21    20 CA   -2.300777394344E+00 -4.716974545534E+00 -2.301582335541E+00
   22    12 MG    2.330136473644E+00 -2.250635006226E+00 -9.774208735800E-02
   23    12 MG    4.694646107765E+00 -1.116162517490E-01 -6.652693940600E-02
   24    20 CA    2.474437784200E-02 -4.730101034706E+00 -3.895270461300E-02
   25    20 CA   -2.307677749584E+00 -2.299681620451E+00 -4.747623459000E+00
   26    12 MG    1.533755833200E-02 -6.475079774600E-02 -4.678882330205E+00
   27    20 CA   -4.690072893502E+00 -4.703593740963E+00 -4.714544262924E+00
   28     8 O     8.879014888200E-02 -1.186700783350E-01 -2.393620218232E+00
   29     8 O     2.330808416394E+00  2.223441558158E+00 -2.333505687750E+00
   30     8 O    -2.282281999245E+00 -2.333657338194E+00 -2.341104873197E+00
   31     8 O     2.424560804246E+00 -1.097973474200E-01 -8.246370071200E-02
   32     8 O     4.675756097161E+00  2.220775893565E+00 -5.979307319000E-03
   33     8 O     1.054753402510E-01 -2.329994114328E+00 -4.246631210900E-02
   34     8 O     4.793912650500E+00 -1.150875186700E-02  2.300971731362E+00
   35     8 O     7.009343464781E+00  2.241182658628E+00  2.346085362863E+00
   36     8 O     2.343450390210E+00 -2.329866801568E+00  2.310642726586E+00
   37     8 O     2.492513152000E-03  2.418518617023E+00 -1.059761564400E-02
   38     8 O     2.257453394766E+00  4.756943004351E+00  9.220002236999E-03
   39     8 O    -2.413103595669E+00  4.727990381000E-03  3.374120420000E-03
   40     8 O     2.340106484937E+00  2.334049819317E+00  2.355412167064E+00
   41     8 O     4.669951380186E+00  4.659358542894E+00  2.393312724381E+00
   42     8 O    -6.893921954000E-03  5.119431605000E-03  2.376536392741E+00
   43     8 O     4.680753066012E+00  2.409991273071E+00  4.696819359760E+00
   44     8 O     6.926851862997E+00  4.761807945007E+00  4.794453583141E+00
   45     8 O     2.229568407831E+00 -9.920967607000E-03  4.745886186579E+00
   46     8 O    -6.868148571000E-03  4.783738039370E+00  2.363816820243E+00
   47     8 O     2.209296567339E+00  6.986588106227E+00  2.343949197640E+00
   48     8 O    -2.337446993800E+00  2.339984717813E+00  2.342315065021E+00
   49     8 O     2.286154942360E+00  4.782312567779E+00  4.776558475572E+00
   50     8 O     4.696911696513E+00  6.882969772313E+00  4.763893114946E+00
   51     8 O    -3.249407930001E-04  2.331055591090E+00  4.687693341803E+00
   52     8 O     4.664427365686E+00  4.775599983137E+00  6.916601742393E+00
   53     8 O     7.069602999196E+00  6.859579869259E+00  6.974418909423E+00
   54     8 O     2.341383617537E+00  2.326826958714E+00  7.020632076002E+00
 WARNING **** CRYSTA **** TESTGEOM  DIRECTIVE - GEOMETRY EDITING COMPLETE
 TTTTTTTTTTTTTTTTTTTTTTTTTTTTTT END         TELAPSE        0.01 TCPU        0.01
 EEEEEEEEEE TERMINATION  DATE 10 03 2023 TIME 10:28:09.8
Fri 10 Mar 2023 10:28:09 GMT
Contents of temporary directory:
total 8
-rw-r--r--  1 brunocamino  admin  4027 10 Mar 10:28 fort.34
SCF abnormal end - no wf written in fort.9
geometry input file fort.34 saved as /Users/brunocamino/Desktop/Imperial/cmsg_icl/solid-solutions/./data/crystal/testgeom_opt/CaMgO_testgeom_311.gui
temporary directory /Users/brunocamino/crystal/tmp removed
