date Fri 10 Mar 2023 10:30:16 GMT
hostname MacBook-Pro-8
system Darwin MacBook-Pro-8 21.6.0 Darwin Kernel Version 21.6.0: Mon Aug 22 20:20:05 PDT 2022; root:xnu-8020.140.49~2/RELEASE_ARM64_T8101 arm64
user brunocamino
output data in /Users/brunocamino/Desktop/Imperial/cmsg_icl/solid-solutions/./data/crystal/testgeom_opt/CaMgO_testgeom_1855.out
crystal executable in /Users/brunocamino/crystal
input data in /Users/brunocamino/Desktop/Imperial/cmsg_icl/solid-solutions/./data/crystal/testgeom_opt/CaMgO_testgeom_1855.d12
temporary directory /Users/brunocamino/crystal/tmp
external geometry input from /Users/brunocamino/Desktop/Imperial/cmsg_icl/solid-solutions/./data/crystal/testgeom_opt/CaMgO_testgeom_1855.gui
external geometry input saved in /Users/brunocamino/Desktop/Imperial/cmsg_icl/solid-solutions/./data/crystal/testgeom_opt/CaMgO_testgeom_1855_inp.gui
Bulk 
EXTERNAL
EXTPRT
TESTGEOM
END

         
 *******************************************************************************
 *                                                                             *
 *                               CRYSTAL17                                     *
 *                      public : 1.0.1 - Feb 1st, 2017                         *
 *                       HTTP://WWW.CRYSTAL.UNITO.IT                           *
 *                                                                             *
 *                              MAIN AUTHORS                                   *
 *                                                                             *
 *  R. DOVESI(1,11), V.R. SAUNDERS(2), C. ROETTI(1,11), R. ORLANDO(1,11),      *
 *  C.M. ZICOVICH-WILSON(1,3), F. PASCALE(4), B. CIVALLERI(1,11),              *
 *  K. DOLL(5), N.M. HARRISON(2,6), I.J. BUSH(7), Ph. D'ARCO(8),               *
 *  M. LLUNELL(9), M. CAUSA'(10), Y. NOEL(8), L. MASCHIO(1,11), A. ERBA(1,11)  *
 *  M. RE'RAT(14), S. CASASSA(1,11)                                            *
 *                                                                             *
 *        CONTRIBUTIONS TO THE CODE HAVE ALSO BEEN GIVEN BY                    *
 *                                                                             *
 *  M. FERRABONE(1,11), M. DE LA PIERRE(1,11), M. FERRERO(1,11),               *
 *  J. BAIMA(1,11), E. ALBANESE(1,11), M.F. PEINTINGER(12), R. BAST(13),       *
 *  B. KIRTMAN(15), V. LACIVITA(1,11), R. DEMICHELIS(1,16)                     *
 *  G. BRANDEBURG(17), S. SALUSTRO(1,11), G. SANSONE(1,11)                     *
 *  M.T. RUGGIERO(18)                                                          *
 *                                                                             *
 * (1) THEORETICAL CHEMISTRY GROUP - UNIVERSITA' DI TORINO - TORINO (ITALY)    *

 * (2) COMPUTATIONAL SCIENCE & ENGINEERING DEPARTMENT - STFC DARESBURY (UK)    *
 * (3) UNIVERSIDAD AUTONOMA DEL ESTADO DE MORELOS - CUERNAVACA (MEXICO)        *
 * (4) UNIVERSITE' DE LORRAINE - NANCY (FRANCE)                                *
 * (5) UNIVERSITAET STUTTGART- STUTTGART (GERMANY)                             *
 * (6) IMPERIAL COLLEGE - LONDON (UK)                                          *
 * (7) OXFORD E-RESEARCH CENTRE - OXFORD (UK)                                  *
 * (8) UPMC - SORBONNE UNIVERSITES - PARIS (FRANCE)                            *
 * (9) UNIVERSIDAD DE BARCELONA - BARCELONA (SPAIN)                            *
 *(10) UNIVERSITA' DI NAPOLI "FEDERICO II" - NAPOLI (ITALY)                    *
 *(11) NIS - NANOSTRUCTURED INTERFACES AND SURFACES - TORINO (ITALY)           *
 *(12) MPI FUER CHEMISCHE ENERGIEKONVERSION - MUELHEIM AN DER RUHR (GERMANY)   *
 *(13) UNIVERSITY OF TROMSO - TROMSO (NORWAY)                                  *
 *(14) UNIVERSITE' DE PAU ET DES PAYS DE L'ADOUR - PAU (FRANCE)                *
 *(15) UNIVERSITY OF CALIFORNIA SANTA BARBARA - SANTA BARBARA (USA)            *
 *(16) CURTIN UNIVERSITY - PERTH (AUSTRALIA)                                   *
 *(17) UNIVERSITY COLLEGE LONDON - LONDON (UK)                                 *
 *(18) CAMBRIDGE UNIVERSITY - CAMBRIDGE (UK)                                   *
 *                                                                             *
 *******************************************************************************
 EEEEEEEEEE STARTING  DATE 10 03 2023 TIME 10:30:16.9
 Bulk                                                                            

 GEOMETRY INPUT FROM EXTERNAL FILE (FORTRAN UNIT 34)
 3D - CRYSTAL 

 *******************************************************************************
 LATTICE PARAMETERS  (ANGSTROMS AND DEGREES) - PRIMITIVE CELL
       A          B          C        ALPHA      BETA     GAMMA        VOLUME
    9.93066    9.91945    9.91482    60.02851  60.15034  59.95469    691.306839
 INFORMATION **** CHKGRP **** SPGR WITH NO INVERSION

 NUMBER OF IRREDUCIBLE ATOMS IN THE CELL:   54

 CARTESIAN COORDINATES (ANGSTROM) - IRREDUCIBLE ATOMS AND SYMMETRY RELATED

 AT.IRR.  AT  AT.N.          X                   Y                   Z
     1     1    20    1.874574202700E-02 -1.006589387600E-02 -1.554586540100E-02
     2     2    20    2.353332277741E+00  2.329709064528E+00 -5.901518718700E-02
     3     3    20   -2.343665206570E+00 -2.344227878214E+00 -2.731023074300E-02
     4     4    20    2.326265666531E+00 -4.357495525000E-02  2.367883171066E+00
     5     5    20    4.695970860327E+00  2.319983473661E+00  2.379195735005E+00
     6     6    20    3.486976181300E-02 -2.371071498390E+00  2.369456300690E+00
     7     7    20   -2.339869584839E+00  2.430311809300E-02 -2.346314256324E+00
     8     8    20    4.136083653700E-02  2.334838349417E+00 -2.359107488924E+00
     9     9    12   -4.629934451693E+00 -2.379955932432E+00 -2.336255492785E+00
    10    10    20   -3.640246555800E-02  2.337529022306E+00  2.345796351910E+00
    11    11    20    2.330672522072E+00  4.703943748470E+00  2.401377212709E+00
    12    12    20   -2.389530752631E+00  4.528819157000E-02  2.399378039516E+00
    13    13    12    2.408944538823E+00  2.377793814357E+00  4.714264157278E+00
    14    14    12    4.562703561969E+00  4.591008397235E+00  4.740912672833E+00
    15    15    20   -2.024095665100E-02 -1.809906088000E-03  4.691983310415E+00
    16    16    12   -2.449378253119E+00  2.424430631541E+00 -1.237340616960E-01
    17    17    20   -3.292059815800E-02  4.679614761923E+00 -7.040062109000E-03
    18    18    20   -4.665390250521E+00  7.220511785400E-02  7.405912232000E-03
    19    19    20    4.142217536400E-02 -2.332849220572E+00 -2.368704569894E+00
    20    20    12    2.369359333827E+00  1.725549236200E-02 -2.347691217319E+00
    21    21    12   -2.431017413358E+00 -4.637120068625E+00 -2.336936785488E+00
    22    22    12    2.406230207284E+00 -2.430270609646E+00 -1.440780208880E-01
    23    23    20    4.667784755600E+00 -4.317550397500E-02 -4.377806206800E-02
    24    24    20    5.432932230400E-02 -4.674211248702E+00 -9.199416928000E-03
    25    25    20   -2.378444582585E+00 -2.378595548536E+00 -4.679243462457E+00
    26    26    12    8.417008292300E-02  5.332475689000E-02 -4.651354853326E+00
    27    27    12   -4.636498577248E+00 -4.648580713691E+00 -4.572537139487E+00
    28    28     8    9.243467151500E-02  2.043986013000E-03 -2.405097033376E+00
    29    29     8    2.450864259843E+00  2.378106590728E+00 -2.405440828397E+00
    30    30     8   -2.429116904863E+00 -2.418872787644E+00 -2.335538321065E+00
    31    31     8    2.336264052375E+00 -9.028440416100E-02 -1.028864689830E-01
    32    32     8    4.677088598768E+00  2.325875828556E+00 -7.495010861800E-02
    33    33     8    8.414400655500E-02 -2.345937535670E+00 -2.817806741000E-03
    34    34     8    4.719868486260E+00 -7.312485269000E-03  2.329496154696E+00
    35    35     8    7.104284843550E+00  2.238487137597E+00  2.348605603257E+00
    36    36     8    2.340025961273E+00 -2.449815363169E+00  2.431051231155E+00
    37    37     8   -5.413159315400E-02  2.336128471653E+00 -2.425386442600E-02
    38    38     8    2.332179666147E+00  4.685765012115E+00 -5.791224921200E-02
    39    39     8   -2.338942312546E+00  7.925065180900E-02 -4.101274027000E-03
    40    40     8    2.331650520054E+00  2.335212228471E+00  2.382926198815E+00
    41    41     8    4.653804608053E+00  4.662766723387E+00  2.390828385152E+00
    42    42     8   -1.339628887000E-02 -6.994171808000E-03  2.357726219726E+00
    43    43     8    4.577897285568E+00  2.426257151099E+00  4.759501007126E+00
    44    44     8    7.025604508093E+00  4.653613469798E+00  4.692515275768E+00
    45    45     8    2.344825052650E+00  1.527925689300E-02  4.689108171260E+00
    46    46     8   -1.124795548500E-02  4.753973679388E+00  2.346538377462E+00
    47    47     8    2.232143480006E+00  7.123559281417E+00  2.472209432524E+00
    48    48     8   -2.437424964686E+00  2.337464113127E+00  2.368635981805E+00
    49    49     8    2.432888560204E+00  4.628190828842E+00  4.759767492394E+00
    50    50     8    4.540258041677E+00  7.005017799069E+00  4.688544454058E+00
    51    51     8    9.982586675000E-03  2.346320054172E+00  4.686852538498E+00
    52    52     8    4.575171345124E+00  4.559415812327E+00  6.911290722763E+00
    53    53     8    7.028338439924E+00  7.013877798327E+00  7.072486699091E+00
    54    54     8    2.440118534761E+00  2.453879526011E+00  6.948631798602E+00

 SYMMETRY CHANGED DURING OLD RUN :  INFORMATION ON SPACE GROUP LOST 
 NUMBER OF SYMMETRY OPERATORS         :    1
 *******************************************************************************
 LATTICE PARAMETERS (ANGSTROMS AND DEGREES) - BOHR = 0.5291772083 ANGSTROM
 PRIMITIVE CELL - CENTRING CODE 1/0 VOLUME=   691.306839 - DENSITY  3.284 g/cm^3
         A              B              C           ALPHA      BETA       GAMMA 
     9.93065959     9.91944589     9.91482264    60.028514  60.150341  59.954690
 *******************************************************************************
 ATOMS IN THE ASYMMETRIC UNIT   54 - ATOMS IN THE UNIT CELL:   54
     ATOM                 X/A                 Y/B                 Z/C    
 *******************************************************************************
      1 T  20 CA   -3.155059121383E-03  9.479810896682E-04  1.721338894624E-03
      2 T  20 CA   -5.357739814224E-03 -2.739072651686E-03  3.380310947611E-01
      3 T  20 CA   -2.494898976070E-03 -1.685131695417E-03 -3.322438163441E-01
      4 T  20 CA   -4.215774032527E-04  3.377029972510E-01 -5.740910032153E-03
      5 T  20 CA    4.645242587507E-04  3.387250089946E-01  3.308736340690E-01
      6 T  20 CA   -3.389387650204E-03  3.406083811048E-01 -3.351213600292E-01
      7 T  20 CA    1.545706232256E-03 -3.357603044012E-01  1.863990883526E-03
      8 T  20 CA   -3.882029130999E-03 -3.318476746459E-01  3.372284215611E-01
      9 T  12 MG   -6.390375126884E-03 -3.266741461451E-01 -3.335028623902E-01
     10 T  20 CA    3.359036390110E-01 -2.381416846550E-03 -2.487865431108E-03
     11 T  20 CA    3.403237521174E-01  1.402996481494E-03  3.309971376329E-01
     12 T  20 CA    3.435340005243E-01 -2.690361087457E-03 -3.374443788380E-01
     13 T  12 MG    3.330356924532E-01  3.378684886959E-01  6.192518184326E-03
     14 T  12 MG    3.396431515182E-01  3.353190408029E-01  3.156106370939E-01
     15 T  20 CA    3.344563064004E-01  3.329691155236E-01 -3.350231199239E-01
     16 T  12 MG    3.383654773658E-01 -3.566035657804E-01  7.394422688388E-03
     17 T  20 CA    3.356777862342E-01 -3.370010278953E-01  3.321147654134E-01
     18 T  20 CA    3.374720197924E-01 -3.373255564844E-01 -3.275909240459E-01
     19 T  20 CA   -3.375533403159E-01  7.731057862982E-04  4.807340317189E-03
     20 T  12 MG   -3.339677418608E-01  4.683768599125E-04  3.367980870553E-01
     21 T  12 MG   -3.238448076721E-01 -8.739272625387E-03 -3.379534378388E-01
     22 T  12 MG   -3.547289913719E-01  3.348631700081E-01  8.149309343884E-03
     23 T  20 CA   -3.381539257025E-01  3.328320722860E-01  3.324180372806E-01
     24 T  20 CA   -3.379679179439E-01  3.369848880437E-01 -3.290505367190E-01
     25 T  20 CA   -3.327754135095E-01 -3.331411623411E-01 -6.566735379807E-03
     26 T  12 MG   -3.324431047038E-01 -3.291940764309E-01  3.403643730854E-01
     27 T  12 MG   -3.265468808542E-01 -3.244744751602E-01 -3.369403362242E-01
     28 T   8 O    -1.771976237036E-01 -1.649069187118E-01  1.776548884589E-01
     29 T   8 O    -1.754452294889E-01 -1.664123263742E-01 -4.848127352903E-01
     30 T   8 O    -1.656343844036E-01 -1.668999220602E-01 -1.796132358918E-01
     31 T   8 O    -1.798974230422E-01  1.657197934060E-01  1.672317696537E-01
     32 T   8 O    -1.720245020091E-01  1.621105712723E-01 -4.956377712444E-01
     33 T   8 O    -1.735397738733E-01  1.733133458777E-01 -1.612247524665E-01
     34 T   8 O    -1.707895182256E-01 -4.969291612034E-01  1.700209702469E-01
     35 T   8 O    -1.787967762438E-01 -4.858939095466E-01  4.987251609581E-01
     36 T   8 O    -1.685724765875E-01 -4.849956635102E-01 -1.809706224362E-01
     37 T   8 O     1.687833994344E-01 -1.724014207085E-01  1.645858303307E-01
     38 T   8 O     1.643022561394E-01 -1.724050800361E-01 -4.954146330798E-01
     39 T   8 O     1.717042919250E-01 -1.727453194821E-01 -1.606064370462E-01
     40 T   8 O     1.699625180515E-01  1.692994514118E-01  1.633345691679E-01
     41 T   8 O     1.714197670699E-01  1.692584253929E-01  4.942360151146E-01
     42 T   8 O     1.678599201814E-01  1.675217960519E-01 -1.690133403167E-01
     43 T   8 O     1.854524639322E-01  4.923027531865E-01  1.608849850661E-01
     44 T   8 O     1.655153083301E-01 -4.969655557864E-01  4.988985153482E-01
     45 T   8 O     1.672715222795E-01 -4.997989018570E-01 -1.651853892435E-01
     46 T   8 O    -4.934472442223E-01 -1.730830005298E-01  1.716991512771E-01
     47 T   8 O    -4.750281177810E-01 -1.733514818213E-01  4.916218571714E-01
     48 T   8 O    -4.917223814555E-01 -1.719707695886E-01 -1.750899391879E-01
     49 T   8 O     4.951035153969E-01  1.821264020583E-01  1.652622962614E-01
     50 T   8 O    -4.902672184315E-01  1.576130325170E-01  4.900087852447E-01
     51 T   8 O     4.994544704728E-01  1.670886709079E-01 -1.649330200565E-01
     52 T   8 O     4.906065244283E-01  4.930939825212E-01  1.599981643108E-01
     53 T   8 O    -4.973159301135E-01 -4.957446953377E-01  4.983912324662E-01
     54 T   8 O     4.948937771866E-01  4.938475232159E-01 -1.449511398855E-01

 T = ATOM BELONGING TO THE ASYMMETRIC UNIT
 *******************************************************************************
 * GEOMETRY EDITING - INPUT COORDINATES ARE GIVEN IN ANGSTROM         
 *******************************************************************************

 GCALCO - MAX INDICES DIRECT LATTICE VECTOR    14    15    14
 NO.OF VECTORS CREATED 6999 STARS 3500 RMAX   198.57783 BOHR

 GEOMETRY FOR WAVE FUNCTION - DIMENSIONALITY OF THE SYSTEM    3
 (NON PERIODIC DIRECTION: LATTICE PARAMETER FORMALLY SET TO 500)
 *******************************************************************************
 LATTICE PARAMETERS (ANGSTROMS AND DEGREES) - BOHR = 0.5291772083 ANGSTROM
 PRIMITIVE CELL - CENTRING CODE 1/0 VOLUME=   691.306839 - DENSITY  3.284 g/cm^3
         A              B              C           ALPHA      BETA       GAMMA 
     9.93065959     9.91944589     9.91482264    60.028514  60.150341  59.954690
 *******************************************************************************
 ATOMS IN THE ASYMMETRIC UNIT   54 - ATOMS IN THE UNIT CELL:   54
     ATOM                 X/A                 Y/B                 Z/C    
 *******************************************************************************
      1 T  20 CA   -3.155059121383E-03  9.479810896682E-04  1.721338894624E-03
      2 T  20 CA   -5.357739814224E-03 -2.739072651686E-03  3.380310947611E-01
      3 T  20 CA   -2.494898976070E-03 -1.685131695417E-03 -3.322438163441E-01
      4 T  20 CA   -4.215774032527E-04  3.377029972510E-01 -5.740910032153E-03
      5 T  20 CA    4.645242587507E-04  3.387250089946E-01  3.308736340690E-01
      6 T  20 CA   -3.389387650204E-03  3.406083811048E-01 -3.351213600292E-01
      7 T  20 CA    1.545706232256E-03 -3.357603044012E-01  1.863990883526E-03
      8 T  20 CA   -3.882029130999E-03 -3.318476746459E-01  3.372284215611E-01
      9 T  12 MG   -6.390375126884E-03 -3.266741461451E-01 -3.335028623902E-01
     10 T  20 CA    3.359036390110E-01 -2.381416846550E-03 -2.487865431108E-03
     11 T  20 CA    3.403237521174E-01  1.402996481494E-03  3.309971376329E-01
     12 T  20 CA    3.435340005243E-01 -2.690361087457E-03 -3.374443788380E-01
     13 T  12 MG    3.330356924532E-01  3.378684886959E-01  6.192518184326E-03
     14 T  12 MG    3.396431515182E-01  3.353190408029E-01  3.156106370939E-01
     15 T  20 CA    3.344563064004E-01  3.329691155236E-01 -3.350231199239E-01
     16 T  12 MG    3.383654773658E-01 -3.566035657804E-01  7.394422688388E-03
     17 T  20 CA    3.356777862342E-01 -3.370010278953E-01  3.321147654134E-01
     18 T  20 CA    3.374720197924E-01 -3.373255564844E-01 -3.275909240459E-01
     19 T  20 CA   -3.375533403159E-01  7.731057862982E-04  4.807340317189E-03
     20 T  12 MG   -3.339677418608E-01  4.683768599126E-04  3.367980870553E-01
     21 T  12 MG   -3.238448076721E-01 -8.739272625386E-03 -3.379534378388E-01
     22 T  12 MG   -3.547289913719E-01  3.348631700081E-01  8.149309343884E-03
     23 T  20 CA   -3.381539257025E-01  3.328320722860E-01  3.324180372806E-01
     24 T  20 CA   -3.379679179439E-01  3.369848880437E-01 -3.290505367190E-01
     25 T  20 CA   -3.327754135095E-01 -3.331411623411E-01 -6.566735379807E-03
     26 T  12 MG   -3.324431047038E-01 -3.291940764309E-01  3.403643730854E-01
     27 T  12 MG   -3.265468808542E-01 -3.244744751602E-01 -3.369403362242E-01
     28 T   8 O    -1.771976237036E-01 -1.649069187118E-01  1.776548884589E-01
     29 T   8 O    -1.754452294889E-01 -1.664123263742E-01 -4.848127352903E-01
     30 T   8 O    -1.656343844036E-01 -1.668999220602E-01 -1.796132358918E-01
     31 T   8 O    -1.798974230422E-01  1.657197934060E-01  1.672317696537E-01
     32 T   8 O    -1.720245020091E-01  1.621105712723E-01 -4.956377712444E-01
     33 T   8 O    -1.735397738733E-01  1.733133458777E-01 -1.612247524665E-01
     34 T   8 O    -1.707895182256E-01 -4.969291612034E-01  1.700209702469E-01
     35 T   8 O    -1.787967762438E-01 -4.858939095466E-01  4.987251609581E-01
     36 T   8 O    -1.685724765875E-01 -4.849956635102E-01 -1.809706224362E-01
     37 T   8 O     1.687833994344E-01 -1.724014207085E-01  1.645858303307E-01
     38 T   8 O     1.643022561394E-01 -1.724050800361E-01 -4.954146330798E-01
     39 T   8 O     1.717042919250E-01 -1.727453194821E-01 -1.606064370462E-01
     40 T   8 O     1.699625180515E-01  1.692994514118E-01  1.633345691679E-01
     41 T   8 O     1.714197670699E-01  1.692584253929E-01  4.942360151146E-01
     42 T   8 O     1.678599201814E-01  1.675217960519E-01 -1.690133403167E-01
     43 T   8 O     1.854524639322E-01  4.923027531865E-01  1.608849850661E-01
     44 T   8 O     1.655153083301E-01 -4.969655557864E-01  4.988985153482E-01
     45 T   8 O     1.672715222795E-01 -4.997989018570E-01 -1.651853892435E-01
     46 T   8 O    -4.934472442223E-01 -1.730830005298E-01  1.716991512771E-01
     47 T   8 O    -4.750281177810E-01 -1.733514818213E-01  4.916218571714E-01
     48 T   8 O    -4.917223814555E-01 -1.719707695886E-01 -1.750899391879E-01
     49 T   8 O     4.951035153969E-01  1.821264020583E-01  1.652622962614E-01
     50 T   8 O    -4.902672184315E-01  1.576130325170E-01  4.900087852447E-01
     51 T   8 O     4.994544704728E-01  1.670886709079E-01 -1.649330200565E-01
     52 T   8 O     4.906065244283E-01  4.930939825212E-01  1.599981643108E-01
     53 T   8 O    -4.973159301135E-01 -4.957446953377E-01  4.983912324662E-01
     54 T   8 O     4.948937771866E-01  4.938475232159E-01 -1.449511398855E-01

 T = ATOM BELONGING TO THE ASYMMETRIC UNIT

 ****    1 SYMMOPS - TRANSLATORS IN FRACTIONAL UNITS
 **** MATRICES AND TRANSLATORS IN THE CRYSTALLOGRAPHIC REFERENCE FRAME
   V INV                    ROTATION MATRICES                   TRANSLATORS
   1   1  1.00  0.00  0.00  0.00  1.00  0.00  0.00  0.00  1.00  0.00  0.00  0.00

 DIRECT LATTICE VECTORS CARTESIAN COMPONENTS (ANGSTROM)
          X                    Y                    Z
  -0.670649798462E-02   0.701078704453E+01   0.703326523637E+01
   0.700780204791E+01  -0.122937305706E-02   0.702040708437E+01
   0.701855912600E+01   0.700310624304E+01  -0.622243630896E-02


 CARTESIAN COORDINATES - PRIMITIVE CELL
 *******************************************************************************
 *      ATOM          X(ANGSTROM)         Y(ANGSTROM)         Z(ANGSTROM)
 *******************************************************************************
    1    20 CA    1.874574202700E-02 -1.006589387600E-02 -1.554586540100E-02
    2    20 CA    2.353332277741E+00  2.329709064528E+00 -5.901518718700E-02
    3    20 CA   -2.343665206570E+00 -2.344227878214E+00 -2.731023074300E-02
    4    20 CA    2.326265666531E+00 -4.357495525000E-02  2.367883171066E+00
    5    20 CA    4.695970860327E+00  2.319983473661E+00  2.379195735005E+00
    6    20 CA    3.486976181300E-02 -2.371071498390E+00  2.369456300690E+00
    7    20 CA   -2.339869584839E+00  2.430311809300E-02 -2.346314256324E+00
    8    20 CA    4.136083653700E-02  2.334838349417E+00 -2.359107488924E+00
    9    12 MG   -4.629934451693E+00 -2.379955932432E+00 -2.336255492785E+00
   10    20 CA   -3.640246555800E-02  2.337529022306E+00  2.345796351910E+00
   11    20 CA    2.330672522072E+00  4.703943748470E+00  2.401377212709E+00
   12    20 CA   -2.389530752631E+00  4.528819157000E-02  2.399378039516E+00
   13    12 MG    2.408944538823E+00  2.377793814357E+00  4.714264157278E+00
   14    12 MG    4.562703561969E+00  4.591008397235E+00  4.740912672833E+00
   15    20 CA   -2.024095665100E-02 -1.809906088000E-03  4.691983310415E+00
   16    12 MG   -2.449378253119E+00  2.424430631541E+00 -1.237340616960E-01
   17    20 CA   -3.292059815800E-02  4.679614761923E+00 -7.040062108999E-03
   18    20 CA   -4.665390250521E+00  7.220511785400E-02  7.405912232000E-03
   19    20 CA    4.142217536400E-02 -2.332849220572E+00 -2.368704569894E+00
   20    12 MG    2.369359333827E+00  1.725549236200E-02 -2.347691217319E+00
   21    12 MG   -2.431017413358E+00 -4.637120068625E+00 -2.336936785488E+00
   22    12 MG    2.406230207284E+00 -2.430270609646E+00 -1.440780208880E-01
   23    20 CA    4.667784755600E+00 -4.317550397500E-02 -4.377806206800E-02
   24    20 CA    5.432932230400E-02 -4.674211248702E+00 -9.199416928000E-03
   25    20 CA   -2.378444582585E+00 -2.378595548536E+00 -4.679243462457E+00
   26    12 MG    8.417008292300E-02  5.332475689000E-02 -4.651354853326E+00
   27    12 MG   -4.636498577248E+00 -4.648580713691E+00 -4.572537139487E+00
   28     8 O     9.243467151500E-02  2.043986013000E-03 -2.405097033376E+00
   29     8 O     2.450864259843E+00  2.378106590728E+00 -2.405440828397E+00
   30     8 O    -2.429116904863E+00 -2.418872787644E+00 -2.335538321065E+00
   31     8 O     2.336264052375E+00 -9.028440416100E-02 -1.028864689830E-01
   32     8 O     4.677088598768E+00  2.325875828556E+00 -7.495010861800E-02
   33     8 O     8.414400655500E-02 -2.345937535670E+00 -2.817806741000E-03
   34     8 O     4.719868486260E+00 -7.312485269000E-03  2.329496154696E+00
   35     8 O     7.104284843550E+00  2.238487137597E+00  2.348605603257E+00
   36     8 O     2.340025961273E+00 -2.449815363169E+00  2.431051231155E+00
   37     8 O    -5.413159315400E-02  2.336128471653E+00 -2.425386442600E-02
   38     8 O     2.332179666147E+00  4.685765012115E+00 -5.791224921200E-02
   39     8 O    -2.338942312546E+00  7.925065180900E-02 -4.101274027000E-03
   40     8 O     2.331650520054E+00  2.335212228471E+00  2.382926198815E+00
   41     8 O     4.653804608053E+00  4.662766723387E+00  2.390828385152E+00
   42     8 O    -1.339628887000E-02 -6.994171808000E-03  2.357726219726E+00
   43     8 O     4.577897285568E+00  2.426257151099E+00  4.759501007126E+00
   44     8 O     7.025604508093E+00  4.653613469798E+00  4.692515275768E+00
   45     8 O     2.344825052650E+00  1.527925689300E-02  4.689108171260E+00
   46     8 O    -1.124795548500E-02  4.753973679388E+00  2.346538377462E+00
   47     8 O     2.232143480006E+00  7.123559281417E+00  2.472209432524E+00
   48     8 O    -2.437424964686E+00  2.337464113127E+00  2.368635981805E+00
   49     8 O     2.432888560204E+00  4.628190828842E+00  4.759767492394E+00
   50     8 O     4.540258041677E+00  7.005017799069E+00  4.688544454058E+00
   51     8 O     9.982586675001E-03  2.346320054172E+00  4.686852538498E+00
   52     8 O     4.575171345124E+00  4.559415812327E+00  6.911290722763E+00
   53     8 O     7.028338439924E+00  7.013877798327E+00  7.072486699091E+00
   54     8 O     2.440118534761E+00  2.453879526011E+00  6.948631798602E+00
 WARNING **** CRYSTA **** TESTGEOM  DIRECTIVE - GEOMETRY EDITING COMPLETE
 TTTTTTTTTTTTTTTTTTTTTTTTTTTTTT END         TELAPSE        0.01 TCPU        0.01
 EEEEEEEEEE TERMINATION  DATE 10 03 2023 TIME 10:30:16.9
Fri 10 Mar 2023 10:30:16 GMT
Contents of temporary directory:
total 8
-rw-r--r--  1 brunocamino  admin  4027 10 Mar 10:30 fort.34
SCF abnormal end - no wf written in fort.9
geometry input file fort.34 saved as /Users/brunocamino/Desktop/Imperial/cmsg_icl/solid-solutions/./data/crystal/testgeom_opt/CaMgO_testgeom_1855.gui
temporary directory /Users/brunocamino/crystal/tmp removed
