date Fri 10 Mar 2023 10:31:27 GMT
hostname MacBook-Pro-8
system Darwin MacBook-Pro-8 21.6.0 Darwin Kernel Version 21.6.0: Mon Aug 22 20:20:05 PDT 2022; root:xnu-8020.140.49~2/RELEASE_ARM64_T8101 arm64
user brunocamino
output data in /Users/brunocamino/Desktop/Imperial/cmsg_icl/solid-solutions/./data/crystal/testgeom_opt/CaMgO_testgeom_2746.out
crystal executable in /Users/brunocamino/crystal
input data in /Users/brunocamino/Desktop/Imperial/cmsg_icl/solid-solutions/./data/crystal/testgeom_opt/CaMgO_testgeom_2746.d12
temporary directory /Users/brunocamino/crystal/tmp
external geometry input from /Users/brunocamino/Desktop/Imperial/cmsg_icl/solid-solutions/./data/crystal/testgeom_opt/CaMgO_testgeom_2746.gui
external geometry input saved in /Users/brunocamino/Desktop/Imperial/cmsg_icl/solid-solutions/./data/crystal/testgeom_opt/CaMgO_testgeom_2746_inp.gui
Bulk 
EXTERNAL
EXTPRT
TESTGEOM
END

         
 *******************************************************************************
 *                                                                             *
 *                               CRYSTAL17                                     *
 *                      public : 1.0.1 - Feb 1st, 2017                         *
 *                       HTTP://WWW.CRYSTAL.UNITO.IT                           *
 *                                                                             *
 *                              MAIN AUTHORS                                   *
 *                                                                             *
 *  R. DOVESI(1,11), V.R. SAUNDERS(2), C. ROETTI(1,11), R. ORLANDO(1,11),      *
 *  C.M. ZICOVICH-WILSON(1,3), F. PASCALE(4), B. CIVALLERI(1,11),              *
 *  K. DOLL(5), N.M. HARRISON(2,6), I.J. BUSH(7), Ph. D'ARCO(8),               *
 *  M. LLUNELL(9), M. CAUSA'(10), Y. NOEL(8), L. MASCHIO(1,11), A. ERBA(1,11)  *
 *  M. RE'RAT(14), S. CASASSA(1,11)                                            *
 *                                                                             *
 *        CONTRIBUTIONS TO THE CODE HAVE ALSO BEEN GIVEN BY                    *
 *                                                                             *
 *  M. FERRABONE(1,11), M. DE LA PIERRE(1,11), M. FERRERO(1,11),               *
 *  J. BAIMA(1,11), E. ALBANESE(1,11), M.F. PEINTINGER(12), R. BAST(13),       *
 *  B. KIRTMAN(15), V. LACIVITA(1,11), R. DEMICHELIS(1,16)                     *
 *  G. BRANDEBURG(17), S. SALUSTRO(1,11), G. SANSONE(1,11)                     *
 *  M.T. RUGGIERO(18)                                                          *
 *                                                                             *
 * (1) THEORETICAL CHEMISTRY GROUP - UNIVERSITA' DI TORINO - TORINO (ITALY)    *

 * (2) COMPUTATIONAL SCIENCE & ENGINEERING DEPARTMENT - STFC DARESBURY (UK)    *
 * (3) UNIVERSIDAD AUTONOMA DEL ESTADO DE MORELOS - CUERNAVACA (MEXICO)        *
 * (4) UNIVERSITE' DE LORRAINE - NANCY (FRANCE)                                *
 * (5) UNIVERSITAET STUTTGART- STUTTGART (GERMANY)                             *
 * (6) IMPERIAL COLLEGE - LONDON (UK)                                          *
 * (7) OXFORD E-RESEARCH CENTRE - OXFORD (UK)                                  *
 * (8) UPMC - SORBONNE UNIVERSITES - PARIS (FRANCE)                            *
 * (9) UNIVERSIDAD DE BARCELONA - BARCELONA (SPAIN)                            *
 *(10) UNIVERSITA' DI NAPOLI "FEDERICO II" - NAPOLI (ITALY)                    *
 *(11) NIS - NANOSTRUCTURED INTERFACES AND SURFACES - TORINO (ITALY)           *
 *(12) MPI FUER CHEMISCHE ENERGIEKONVERSION - MUELHEIM AN DER RUHR (GERMANY)   *
 *(13) UNIVERSITY OF TROMSO - TROMSO (NORWAY)                                  *
 *(14) UNIVERSITE' DE PAU ET DES PAYS DE L'ADOUR - PAU (FRANCE)                *
 *(15) UNIVERSITY OF CALIFORNIA SANTA BARBARA - SANTA BARBARA (USA)            *
 *(16) CURTIN UNIVERSITY - PERTH (AUSTRALIA)                                   *
 *(17) UNIVERSITY COLLEGE LONDON - LONDON (UK)                                 *
 *(18) CAMBRIDGE UNIVERSITY - CAMBRIDGE (UK)                                   *
 *                                                                             *
 *******************************************************************************
 EEEEEEEEEE STARTING  DATE 10 03 2023 TIME 10:31:27.7
 Bulk                                                                            

 GEOMETRY INPUT FROM EXTERNAL FILE (FORTRAN UNIT 34)
 3D - CRYSTAL 

 *******************************************************************************
 LATTICE PARAMETERS  (ANGSTROMS AND DEGREES) - PRIMITIVE CELL
       A          B          C        ALPHA      BETA     GAMMA        VOLUME
    9.91894    9.92565    9.89145    60.10457  60.06371  59.68343    687.809087
 INFORMATION **** CHKGRP **** SPGR WITH NO INVERSION

 NUMBER OF IRREDUCIBLE ATOMS IN THE CELL:   54

 CARTESIAN COORDINATES (ANGSTROM) - IRREDUCIBLE ATOMS AND SYMMETRY RELATED

 AT.IRR.  AT  AT.N.          X                   Y                   Z
     1     1    20   -3.872910706000E-03 -1.048303771500E-02 -2.112160648600E-02
     2     2    20    2.323238686621E+00  2.344996891671E+00 -2.250763738500E-02
     3     3    20   -2.341621828770E+00 -2.313701108312E+00 -6.755165927000E-03
     4     4    20    2.339372379408E+00 -3.461215745300E-02  2.384046682443E+00
     5     5    20    4.649837431281E+00  2.305106867499E+00  2.331507501538E+00
     6     6    20    1.675801382500E-02 -2.333005491246E+00  2.349646231385E+00
     7     7    20   -2.365920985197E+00 -1.508020903300E-02 -2.325556916021E+00
     8     8    20   -1.794941464400E-02  2.355415547791E+00 -2.314731585854E+00
     9     9    12   -4.715356974233E+00 -2.413257793927E+00 -2.382873954442E+00
    10    10    20   -3.038275777000E-02  2.357072924866E+00  2.337847918285E+00
    11    11    20    2.315023793476E+00  4.679291970922E+00  2.365601995158E+00
    12    12    12   -2.351722070477E+00  6.883411031300E-02  2.265199579344E+00
    13    13    12    2.357768127227E+00  2.419515563364E+00  4.698418625184E+00
    14    14    20    4.643828779970E+00  4.677877899525E+00  4.750159533789E+00
    15    15    20   -1.428863614400E-02 -6.793122080000E-03  4.694626127511E+00
    16    16    12   -2.377090360181E+00  2.349693938720E+00  5.130299912100E-02
    17    17    12    3.913679433000E-03  4.674987437273E+00 -6.169947196400E-02
    18    18    20   -4.661660846188E+00  3.100950744800E-02 -1.679919948600E-02
    19    19    12    7.498977629800E-02 -2.360719543875E+00 -2.307006138610E+00
    20    20    20    2.372555276419E+00 -1.252952694200E-02 -2.322694265379E+00
    21    21    20   -2.336293368888E+00 -4.663884042869E+00 -2.363402512881E+00
    22    22    12    2.393624243633E+00 -2.390444729981E+00 -2.760370730400E-02
    23    23    12    4.676520049711E+00 -4.841401450000E-02  3.387621395100E-02
    24    24    20    7.388217340000E-02 -4.646442372969E+00 -1.918395526600E-02
    25    25    20   -2.337972078556E+00 -2.352725800972E+00 -4.742553282670E+00
    26    26    20    1.113518202500E-02 -2.989219657800E-02 -4.700519995185E+00
    27    27    12   -4.599016784464E+00 -4.635463770935E+00 -4.705352485276E+00
    28    28     8    1.890128693300E-02 -9.861135053100E-02 -2.351796472807E+00
    29    29     8    2.322201154205E+00  2.422007877231E+00 -2.351881746997E+00
    30    30     8   -2.349468473902E+00 -2.347240566555E+00 -2.355071830669E+00
    31    31     8    2.430724279465E+00 -1.248783041300E-01  2.596562897800E-02
    32    32     8    4.671460960439E+00  2.257106095496E+00  8.589054269000E-03
    33    33     8    4.546473014700E-02 -2.326734177413E+00 -4.572857061100E-02
    34    34     8    4.664066727802E+00 -5.788388860000E-04  2.317496654570E+00
    35    35     8    7.086290559700E+00  2.324210378616E+00  2.356467204462E+00
    36    36     8    2.321821561403E+00 -2.456661875825E+00  2.386369233438E+00
    37    37     8   -1.112080551720E-01  2.446468378609E+00  2.364868184000E-03
    38    38     8    2.229147686773E+00  4.666860292645E+00 -7.069037984100E-02
    39    39     8   -2.327858377347E+00  7.881865182600E-02  2.284466275000E-02
    40    40     8    2.329966628171E+00  2.331280921946E+00  2.381237667845E+00
    41    41     8    4.653913628420E+00  4.759540746967E+00  2.345818108534E+00
    42    42     8   -1.055421489500E-01  8.943090393000E-03  2.336165459628E+00
    43    43     8    4.526237628169E+00  2.343147486213E+00  4.753697676816E+00
    44    44     8    7.097091493166E+00  4.661978443126E+00  4.770955946430E+00
    45    45     8    2.309242451356E+00  1.161258722000E-03  4.689556998767E+00
    46    46     8    1.334782522500E-02  4.657952892755E+00  2.338957176578E+00
    47    47     8    2.460041559265E+00  7.087125051568E+00  2.352931927162E+00
    48    48     8   -2.442458697368E+00  2.222788269607E+00  2.239551014476E+00
    49    49     8    2.232679173119E+00  4.573163940614E+00  4.742669234967E+00
    50    50     8    4.670969644915E+00  7.004763894669E+00  4.744937260676E+00
    51    51     8    1.159392625500E-01  2.439603186856E+00  4.715234145285E+00
    52    52     8    4.650979573718E+00  4.679383296821E+00  7.038252987110E+00
    53    53     8    6.889576844260E+00  6.904728535507E+00  7.045277662086E+00
    54    54     8    2.442235111299E+00  2.457949387691E+00  7.031124027308E+00

 SYMMETRY CHANGED DURING OLD RUN :  INFORMATION ON SPACE GROUP LOST 
 NUMBER OF SYMMETRY OPERATORS         :    1
 *******************************************************************************
 LATTICE PARAMETERS (ANGSTROMS AND DEGREES) - BOHR = 0.5291772083 ANGSTROM
 PRIMITIVE CELL - CENTRING CODE 1/0 VOLUME=   687.809087 - DENSITY  3.300 g/cm^3
         A              B              C           ALPHA      BETA       GAMMA 
     9.91893860     9.92565308     9.89145123    60.104572  60.063707  59.683429
 *******************************************************************************
 ATOMS IN THE ASYMMETRIC UNIT   54 - ATOMS IN THE UNIT CELL:   54
     ATOM                 X/A                 Y/B                 Z/C    
 *******************************************************************************
      1 T  20 CA   -1.973727947300E-03 -1.025858444117E-03  4.738090506084E-04
      2 T  20 CA   -2.915649702562E-04 -2.995326407441E-03  3.353609888927E-01
      3 T  20 CA    1.770182615443E-03 -2.636264827107E-03 -3.323596501843E-01
      4 T  20 CA   -7.693743538674E-04  3.391445292976E-01 -4.532668332235E-03
      5 T  20 CA   -2.657141843412E-03  3.334814123730E-01  3.316706651144E-01
      6 T  20 CA   -1.230635296234E-03  3.348129048940E-01 -3.324753587481E-01
      7 T  20 CA    3.272012104222E-03 -3.333408735623E-01 -5.072430530250E-03
      8 T  20 CA    5.401374173402E-03 -3.340244495025E-01  3.315124578133E-01
      9 T  12 MG   -4.037765848917E-03 -3.340801334759E-01 -3.404389318598E-01
     10 T  20 CA    3.370393788837E-01 -4.947709767546E-03  2.901859699375E-04
     11 T  20 CA    3.370998599476E-01 -1.160015291061E-03  3.320379490869E-01
     12 T  12 MG    3.344955738335E-01 -1.262808709174E-02 -3.241188041424E-01
     13 T  12 MG    3.380522333005E-01  3.290807087313E-01  7.851213473699E-03
     14 T  20 CA    3.395007793157E-01  3.348888737962E-01  3.290867700384E-01
     15 T  20 CA    3.341540758606E-01  3.325315358569E-01 -3.349454455166E-01
     16 T  12 MG    3.422575784237E-01 -3.346958703985E-01 -5.628727099741E-03
     17 T  12 MG    3.299835093952E-01 -3.385651475819E-01  3.388814274452E-01
     18 T  20 CA    3.352214894661E-01 -3.372424092535E-01 -3.299081497347E-01
     19 T  12 MG   -3.383065805413E-01  1.059113892416E-02  4.480535813658E-04
     20 T  20 CA   -3.360444385178E-01  6.012671030146E-03  3.337172779862E-01
     21 T  20 CA   -3.343157939853E-01 -1.309447767147E-03 -3.326134586285E-01
     22 T  12 MG   -3.446758000701E-01  3.404767692108E-01  2.214366156487E-03
     23 T  12 MG   -3.363190621030E-01  3.407632607725E-01  3.285134446351E-01
     24 T  20 CA   -3.392652263267E-01  3.363556293907E-01 -3.255333665326E-01
     25 T  20 CA   -3.378267767882E-01 -3.355726997803E-01  1.473794462797E-03
     26 T  20 CA   -3.369728796947E-01 -3.305508927423E-01  3.325159132187E-01
     27 T  12 MG   -3.364930997128E-01 -3.315353517856E-01 -3.260328370885E-01
     28 T   8 O    -1.755405151044E-01 -1.584438385401E-01  1.613391623732E-01
     29 T   8 O    -1.602377153947E-01 -1.738409853127E-01 -4.937626641976E-01
     30 T   8 O    -1.669474523505E-01 -1.674042152636E-01 -1.685281221000E-01
     31 T   8 O    -1.813531212986E-01  1.848461204488E-01  1.630298321627E-01
     32 T   8 O    -1.727177985500E-01  1.736604324751E-01  4.947715963747E-01
     33 T   8 O    -1.730631332093E-01  1.664757697748E-01 -1.598417532415E-01
     34 T   8 O    -1.697203226382E-01  4.984647188880E-01  1.688475234482E-01
     35 T   8 O    -1.741858297788E-01 -4.916346362356E-01 -4.945250332989E-01
     36 T   8 O    -1.727231858197E-01 -4.886640419480E-01 -1.791072157096E-01
     37 T   8 O     1.832656247540E-01 -1.828265960508E-01  1.667808136618E-01
     38 T   8 O     1.692352779095E-01 -1.792675655600E-01  4.980477458144E-01
     39 T   8 O     1.741501865363E-01 -1.707214283053E-01 -1.624343351102E-01
     40 T   8 O     1.690625410574E-01  1.690058463712E-01  1.641342886740E-01
     41 T   8 O     1.737628253975E-01  1.591882078107E-01 -4.935844536324E-01
     42 T   8 O     1.742223216103E-01  1.575455611470E-01 -1.728344299208E-01
     43 T   8 O     1.810558264022E-01  4.937552457367E-01  1.535153387862E-01
     44 T   8 O     1.639655407127E-01 -4.868145170553E-01 -4.981137050439E-01
     45 T   8 O     1.677887592058E-01  4.979960912771E-01 -1.678795487715E-01
     46 T   8 O     4.986865637836E-01 -1.663518831531E-01  1.678303515803E-01
     47 T   8 O     4.981625401450E-01 -1.639402554380E-01 -4.845547814572E-01
     48 T   8 O     4.933638833368E-01 -1.750484588357E-01 -1.747966972591E-01
     49 T   8 O    -4.956713481344E-01  1.691812903230E-01  1.497305752257E-01
     50 T   8 O    -4.962510710002E-01  1.699868921406E-01  4.977496331856E-01
     51 T   8 O    -4.985976381813E-01  1.682941606152E-01 -1.522023516860E-01
     52 T   8 O    -4.983044523380E-01  4.976261976192E-01  1.671927245287E-01
     53 T   8 O    -4.989943880577E-01  4.992251092729E-01  4.858501212447E-01
     54 T   8 O    -4.994820983160E-01  4.978778811998E-01 -1.490431041607E-01

 T = ATOM BELONGING TO THE ASYMMETRIC UNIT
 *******************************************************************************
 * GEOMETRY EDITING - INPUT COORDINATES ARE GIVEN IN ANGSTROM         
 *******************************************************************************

 GCALCO - MAX INDICES DIRECT LATTICE VECTOR    15    15    14
 NO.OF VECTORS CREATED 6999 STARS 3500 RMAX   198.37276 BOHR

 GEOMETRY FOR WAVE FUNCTION - DIMENSIONALITY OF THE SYSTEM    3
 (NON PERIODIC DIRECTION: LATTICE PARAMETER FORMALLY SET TO 500)
 *******************************************************************************
 LATTICE PARAMETERS (ANGSTROMS AND DEGREES) - BOHR = 0.5291772083 ANGSTROM
 PRIMITIVE CELL - CENTRING CODE 1/0 VOLUME=   687.809087 - DENSITY  3.300 g/cm^3
         A              B              C           ALPHA      BETA       GAMMA 
     9.91893860     9.92565308     9.89145123    60.104572  60.063707  59.683429
 *******************************************************************************
 ATOMS IN THE ASYMMETRIC UNIT   54 - ATOMS IN THE UNIT CELL:   54
     ATOM                 X/A                 Y/B                 Z/C    
 *******************************************************************************
      1 T  20 CA   -1.973727947300E-03 -1.025858444117E-03  4.738090506084E-04
      2 T  20 CA   -2.915649702562E-04 -2.995326407441E-03  3.353609888927E-01
      3 T  20 CA    1.770182615443E-03 -2.636264827107E-03 -3.323596501843E-01
      4 T  20 CA   -7.693743538673E-04  3.391445292976E-01 -4.532668332235E-03
      5 T  20 CA   -2.657141843412E-03  3.334814123730E-01  3.316706651144E-01
      6 T  20 CA   -1.230635296234E-03  3.348129048940E-01 -3.324753587481E-01
      7 T  20 CA    3.272012104222E-03 -3.333408735623E-01 -5.072430530250E-03
      8 T  20 CA    5.401374173402E-03 -3.340244495025E-01  3.315124578133E-01
      9 T  12 MG   -4.037765848917E-03 -3.340801334759E-01 -3.404389318598E-01
     10 T  20 CA    3.370393788837E-01 -4.947709767546E-03  2.901859699375E-04
     11 T  20 CA    3.370998599476E-01 -1.160015291061E-03  3.320379490869E-01
     12 T  12 MG    3.344955738335E-01 -1.262808709174E-02 -3.241188041424E-01
     13 T  12 MG    3.380522333005E-01  3.290807087313E-01  7.851213473699E-03
     14 T  20 CA    3.395007793157E-01  3.348888737962E-01  3.290867700384E-01
     15 T  20 CA    3.341540758606E-01  3.325315358569E-01 -3.349454455166E-01
     16 T  12 MG    3.422575784237E-01 -3.346958703985E-01 -5.628727099741E-03
     17 T  12 MG    3.299835093952E-01 -3.385651475819E-01  3.388814274452E-01
     18 T  20 CA    3.352214894661E-01 -3.372424092535E-01 -3.299081497347E-01
     19 T  12 MG   -3.383065805413E-01  1.059113892416E-02  4.480535813659E-04
     20 T  20 CA   -3.360444385178E-01  6.012671030146E-03  3.337172779862E-01
     21 T  20 CA   -3.343157939853E-01 -1.309447767147E-03 -3.326134586285E-01
     22 T  12 MG   -3.446758000701E-01  3.404767692108E-01  2.214366156487E-03
     23 T  12 MG   -3.363190621030E-01  3.407632607725E-01  3.285134446351E-01
     24 T  20 CA   -3.392652263267E-01  3.363556293907E-01 -3.255333665326E-01
     25 T  20 CA   -3.378267767882E-01 -3.355726997803E-01  1.473794462797E-03
     26 T  20 CA   -3.369728796947E-01 -3.305508927423E-01  3.325159132187E-01
     27 T  12 MG   -3.364930997128E-01 -3.315353517856E-01 -3.260328370885E-01
     28 T   8 O    -1.755405151044E-01 -1.584438385401E-01  1.613391623732E-01
     29 T   8 O    -1.602377153947E-01 -1.738409853127E-01 -4.937626641976E-01
     30 T   8 O    -1.669474523505E-01 -1.674042152636E-01 -1.685281221000E-01
     31 T   8 O    -1.813531212986E-01  1.848461204488E-01  1.630298321627E-01
     32 T   8 O    -1.727177985500E-01  1.736604324751E-01  4.947715963747E-01
     33 T   8 O    -1.730631332093E-01  1.664757697748E-01 -1.598417532415E-01
     34 T   8 O    -1.697203226382E-01  4.984647188880E-01  1.688475234482E-01
     35 T   8 O    -1.741858297788E-01 -4.916346362356E-01 -4.945250332989E-01
     36 T   8 O    -1.727231858197E-01 -4.886640419480E-01 -1.791072157096E-01
     37 T   8 O     1.832656247540E-01 -1.828265960508E-01  1.667808136618E-01
     38 T   8 O     1.692352779095E-01 -1.792675655600E-01  4.980477458144E-01
     39 T   8 O     1.741501865363E-01 -1.707214283053E-01 -1.624343351102E-01
     40 T   8 O     1.690625410574E-01  1.690058463712E-01  1.641342886740E-01
     41 T   8 O     1.737628253975E-01  1.591882078107E-01 -4.935844536324E-01
     42 T   8 O     1.742223216103E-01  1.575455611470E-01 -1.728344299208E-01
     43 T   8 O     1.810558264022E-01  4.937552457367E-01  1.535153387862E-01
     44 T   8 O     1.639655407127E-01 -4.868145170553E-01 -4.981137050439E-01
     45 T   8 O     1.677887592058E-01  4.979960912771E-01 -1.678795487715E-01
     46 T   8 O     4.986865637836E-01 -1.663518831531E-01  1.678303515803E-01
     47 T   8 O     4.981625401450E-01 -1.639402554380E-01 -4.845547814572E-01
     48 T   8 O     4.933638833368E-01 -1.750484588357E-01 -1.747966972591E-01
     49 T   8 O    -4.956713481344E-01  1.691812903230E-01  1.497305752257E-01
     50 T   8 O    -4.962510710002E-01  1.699868921406E-01  4.977496331856E-01
     51 T   8 O    -4.985976381813E-01  1.682941606152E-01 -1.522023516860E-01
     52 T   8 O    -4.983044523380E-01  4.976261976192E-01  1.671927245287E-01
     53 T   8 O    -4.989943880577E-01  4.992251092729E-01  4.858501212447E-01
     54 T   8 O    -4.994820983160E-01  4.978778811998E-01 -1.490431041607E-01

 T = ATOM BELONGING TO THE ASYMMETRIC UNIT

 ****    1 SYMMOPS - TRANSLATORS IN FRACTIONAL UNITS
 **** MATRICES AND TRANSLATORS IN THE CRYSTALLOGRAPHIC REFERENCE FRAME
   V INV                    ROTATION MATRICES                   TRANSLATORS
   1   1  1.00  0.00  0.00  0.00  1.00  0.00  0.00  0.00  1.00  0.00  0.00  0.00

 DIRECT LATTICE VECTORS CARTESIAN COMPONENTS (ANGSTROM)
          X                    Y                    Z
   0.646735555647E-02   0.698754640729E+01   0.703985058449E+01
   0.699129903828E+01   0.733079003177E-02   0.704558536282E+01
   0.699002529378E+01   0.699859629258E+01   0.193452534999E-02


 CARTESIAN COORDINATES - PRIMITIVE CELL
 *******************************************************************************
 *      ATOM          X(ANGSTROM)         Y(ANGSTROM)         Z(ANGSTROM)
 *******************************************************************************
    1    20 CA   -3.872910706000E-03 -1.048303771500E-02 -2.112160648600E-02
    2    20 CA    2.323238686621E+00  2.344996891671E+00 -2.250763738500E-02
    3    20 CA   -2.341621828770E+00 -2.313701108312E+00 -6.755165927000E-03
    4    20 CA    2.339372379408E+00 -3.461215745300E-02  2.384046682443E+00
    5    20 CA    4.649837431281E+00  2.305106867499E+00  2.331507501538E+00
    6    20 CA    1.675801382500E-02 -2.333005491246E+00  2.349646231385E+00
    7    20 CA   -2.365920985197E+00 -1.508020903300E-02 -2.325556916021E+00
    8    20 CA   -1.794941464400E-02  2.355415547791E+00 -2.314731585854E+00
    9    12 MG   -4.715356974233E+00 -2.413257793927E+00 -2.382873954442E+00
   10    20 CA   -3.038275777000E-02  2.357072924866E+00  2.337847918285E+00
   11    20 CA    2.315023793476E+00  4.679291970922E+00  2.365601995158E+00
   12    12 MG   -2.351722070477E+00  6.883411031300E-02  2.265199579344E+00
   13    12 MG    2.357768127227E+00  2.419515563364E+00  4.698418625184E+00
   14    20 CA    4.643828779970E+00  4.677877899525E+00  4.750159533789E+00
   15    20 CA   -1.428863614400E-02 -6.793122079999E-03  4.694626127511E+00
   16    12 MG   -2.377090360181E+00  2.349693938720E+00  5.130299912100E-02
   17    12 MG    3.913679433000E-03  4.674987437273E+00 -6.169947196400E-02
   18    20 CA   -4.661660846188E+00  3.100950744800E-02 -1.679919948600E-02
   19    12 MG    7.498977629800E-02 -2.360719543875E+00 -2.307006138610E+00
   20    20 CA    2.372555276419E+00 -1.252952694200E-02 -2.322694265379E+00
   21    20 CA   -2.336293368888E+00 -4.663884042869E+00 -2.363402512881E+00
   22    12 MG    2.393624243633E+00 -2.390444729981E+00 -2.760370730400E-02
   23    12 MG    4.676520049711E+00 -4.841401450000E-02  3.387621395100E-02
   24    20 CA    7.388217340000E-02 -4.646442372969E+00 -1.918395526600E-02
   25    20 CA   -2.337972078556E+00 -2.352725800972E+00 -4.742553282670E+00
   26    20 CA    1.113518202500E-02 -2.989219657800E-02 -4.700519995185E+00
   27    12 MG   -4.599016784464E+00 -4.635463770935E+00 -4.705352485276E+00
   28     8 O     1.890128693300E-02 -9.861135053100E-02 -2.351796472807E+00
   29     8 O     2.322201154205E+00  2.422007877231E+00 -2.351881746997E+00
   30     8 O    -2.349468473902E+00 -2.347240566555E+00 -2.355071830669E+00
   31     8 O     2.430724279465E+00 -1.248783041300E-01  2.596562897800E-02
   32     8 O     4.671460960439E+00  2.257106095496E+00  8.589054269000E-03
   33     8 O     4.546473014700E-02 -2.326734177413E+00 -4.572857061100E-02
   34     8 O     4.664066727802E+00 -5.788388860001E-04  2.317496654570E+00
   35     8 O     7.086290559700E+00  2.324210378616E+00  2.356467204462E+00
   36     8 O     2.321821561403E+00 -2.456661875825E+00  2.386369233438E+00
   37     8 O    -1.112080551720E-01  2.446468378609E+00  2.364868184000E-03
   38     8 O     2.229147686773E+00  4.666860292645E+00 -7.069037984100E-02
   39     8 O    -2.327858377347E+00  7.881865182600E-02  2.284466275000E-02
   40     8 O     2.329966628171E+00  2.331280921946E+00  2.381237667845E+00
   41     8 O     4.653913628420E+00  4.759540746967E+00  2.345818108534E+00
   42     8 O    -1.055421489500E-01  8.943090393000E-03  2.336165459628E+00
   43     8 O     4.526237628169E+00  2.343147486213E+00  4.753697676816E+00
   44     8 O     7.097091493166E+00  4.661978443126E+00  4.770955946430E+00
   45     8 O     2.309242451356E+00  1.161258722000E-03  4.689556998767E+00
   46     8 O     1.334782522500E-02  4.657952892755E+00  2.338957176578E+00
   47     8 O     2.460041559265E+00  7.087125051568E+00  2.352931927162E+00
   48     8 O    -2.442458697368E+00  2.222788269607E+00  2.239551014476E+00
   49     8 O     2.232679173119E+00  4.573163940614E+00  4.742669234967E+00
   50     8 O     4.670969644915E+00  7.004763894669E+00  4.744937260676E+00
   51     8 O     1.159392625500E-01  2.439603186856E+00  4.715234145285E+00
   52     8 O     4.650979573718E+00  4.679383296821E+00  7.038252987110E+00
   53     8 O     6.889576844260E+00  6.904728535507E+00  7.045277662086E+00
   54     8 O     2.442235111299E+00  2.457949387691E+00  7.031124027308E+00
 WARNING **** CRYSTA **** TESTGEOM  DIRECTIVE - GEOMETRY EDITING COMPLETE
 TTTTTTTTTTTTTTTTTTTTTTTTTTTTTT END         TELAPSE        0.01 TCPU        0.01
 EEEEEEEEEE TERMINATION  DATE 10 03 2023 TIME 10:31:27.7
Fri 10 Mar 2023 10:31:27 GMT
Contents of temporary directory:
total 8
-rw-r--r--  1 brunocamino  admin  4027 10 Mar 10:31 fort.34
SCF abnormal end - no wf written in fort.9
geometry input file fort.34 saved as /Users/brunocamino/Desktop/Imperial/cmsg_icl/solid-solutions/./data/crystal/testgeom_opt/CaMgO_testgeom_2746.gui
temporary directory /Users/brunocamino/crystal/tmp removed
