date Fri 10 Mar 2023 10:32:09 GMT
hostname MacBook-Pro-8
system Darwin MacBook-Pro-8 21.6.0 Darwin Kernel Version 21.6.0: Mon Aug 22 20:20:05 PDT 2022; root:xnu-8020.140.49~2/RELEASE_ARM64_T8101 arm64
user brunocamino
output data in /Users/brunocamino/Desktop/Imperial/cmsg_icl/solid-solutions/./data/crystal/testgeom_opt/CaMgO_testgeom_3262.out
crystal executable in /Users/brunocamino/crystal
input data in /Users/brunocamino/Desktop/Imperial/cmsg_icl/solid-solutions/./data/crystal/testgeom_opt/CaMgO_testgeom_3262.d12
temporary directory /Users/brunocamino/crystal/tmp
external geometry input from /Users/brunocamino/Desktop/Imperial/cmsg_icl/solid-solutions/./data/crystal/testgeom_opt/CaMgO_testgeom_3262.gui
external geometry input saved in /Users/brunocamino/Desktop/Imperial/cmsg_icl/solid-solutions/./data/crystal/testgeom_opt/CaMgO_testgeom_3262_inp.gui
Bulk 
EXTERNAL
EXTPRT
TESTGEOM
END

         
 *******************************************************************************
 *                                                                             *
 *                               CRYSTAL17                                     *
 *                      public : 1.0.1 - Feb 1st, 2017                         *
 *                       HTTP://WWW.CRYSTAL.UNITO.IT                           *
 *                                                                             *
 *                              MAIN AUTHORS                                   *
 *                                                                             *
 *  R. DOVESI(1,11), V.R. SAUNDERS(2), C. ROETTI(1,11), R. ORLANDO(1,11),      *
 *  C.M. ZICOVICH-WILSON(1,3), F. PASCALE(4), B. CIVALLERI(1,11),              *
 *  K. DOLL(5), N.M. HARRISON(2,6), I.J. BUSH(7), Ph. D'ARCO(8),               *
 *  M. LLUNELL(9), M. CAUSA'(10), Y. NOEL(8), L. MASCHIO(1,11), A. ERBA(1,11)  *
 *  M. RE'RAT(14), S. CASASSA(1,11)                                            *
 *                                                                             *
 *        CONTRIBUTIONS TO THE CODE HAVE ALSO BEEN GIVEN BY                    *
 *                                                                             *
 *  M. FERRABONE(1,11), M. DE LA PIERRE(1,11), M. FERRERO(1,11),               *
 *  J. BAIMA(1,11), E. ALBANESE(1,11), M.F. PEINTINGER(12), R. BAST(13),       *
 *  B. KIRTMAN(15), V. LACIVITA(1,11), R. DEMICHELIS(1,16)                     *
 *  G. BRANDEBURG(17), S. SALUSTRO(1,11), G. SANSONE(1,11)                     *
 *  M.T. RUGGIERO(18)                                                          *
 *                                                                             *
 * (1) THEORETICAL CHEMISTRY GROUP - UNIVERSITA' DI TORINO - TORINO (ITALY)    *

 * (2) COMPUTATIONAL SCIENCE & ENGINEERING DEPARTMENT - STFC DARESBURY (UK)    *
 * (3) UNIVERSIDAD AUTONOMA DEL ESTADO DE MORELOS - CUERNAVACA (MEXICO)        *
 * (4) UNIVERSITE' DE LORRAINE - NANCY (FRANCE)                                *
 * (5) UNIVERSITAET STUTTGART- STUTTGART (GERMANY)                             *
 * (6) IMPERIAL COLLEGE - LONDON (UK)                                          *
 * (7) OXFORD E-RESEARCH CENTRE - OXFORD (UK)                                  *
 * (8) UPMC - SORBONNE UNIVERSITES - PARIS (FRANCE)                            *
 * (9) UNIVERSIDAD DE BARCELONA - BARCELONA (SPAIN)                            *
 *(10) UNIVERSITA' DI NAPOLI "FEDERICO II" - NAPOLI (ITALY)                    *
 *(11) NIS - NANOSTRUCTURED INTERFACES AND SURFACES - TORINO (ITALY)           *
 *(12) MPI FUER CHEMISCHE ENERGIEKONVERSION - MUELHEIM AN DER RUHR (GERMANY)   *
 *(13) UNIVERSITY OF TROMSO - TROMSO (NORWAY)                                  *
 *(14) UNIVERSITE' DE PAU ET DES PAYS DE L'ADOUR - PAU (FRANCE)                *
 *(15) UNIVERSITY OF CALIFORNIA SANTA BARBARA - SANTA BARBARA (USA)            *
 *(16) CURTIN UNIVERSITY - PERTH (AUSTRALIA)                                   *
 *(17) UNIVERSITY COLLEGE LONDON - LONDON (UK)                                 *
 *(18) CAMBRIDGE UNIVERSITY - CAMBRIDGE (UK)                                   *
 *                                                                             *
 *******************************************************************************
 EEEEEEEEEE STARTING  DATE 10 03 2023 TIME 10:32:09.5
 Bulk                                                                            

 GEOMETRY INPUT FROM EXTERNAL FILE (FORTRAN UNIT 34)
 3D - CRYSTAL 

 *******************************************************************************
 LATTICE PARAMETERS  (ANGSTROMS AND DEGREES) - PRIMITIVE CELL
       A          B          C        ALPHA      BETA     GAMMA        VOLUME
    9.92934    9.92949    9.91568    60.07584  59.82942  59.86754    690.086871
 INFORMATION **** CHKGRP **** SPGR WITH NO INVERSION

 NUMBER OF IRREDUCIBLE ATOMS IN THE CELL:   54

 CARTESIAN COORDINATES (ANGSTROM) - IRREDUCIBLE ATOMS AND SYMMETRY RELATED

 AT.IRR.  AT  AT.N.          X                   Y                   Z
     1     1    20    2.412300189900E-02  6.591504561000E-03 -8.436526525400E-02
     2     2    20    2.327861315357E+00  2.339102916682E+00 -4.897177195900E-02
     3     3    20   -2.343338565939E+00 -2.343373567489E+00 -2.199929324900E-02
     4     4    20    2.338715294586E+00 -1.188989595900E-02  2.411250773863E+00
     5     5    20    4.682172321536E+00  2.317196583797E+00  2.365297754090E+00
     6     6    20    2.820616132500E-02 -2.360985372560E+00  2.400119992887E+00
     7     7    20   -2.334262275295E+00 -1.095696815000E-03 -2.344653527683E+00
     8     8    12    1.453165295580E-01  2.372213787161E+00 -2.348451345152E+00
     9     9    12   -4.773357837696E+00 -2.380289593463E+00 -2.335820909729E+00
    10    10    20    2.525228612000E-03  2.359712986204E+00  2.385393466116E+00
    11    11    20    2.297402459739E+00  4.690351612705E+00  2.404562874762E+00
    12    12    20   -2.354620721988E+00  3.075902142600E-02  2.364214414747E+00
    13    13    12    2.245614867036E+00  2.337901837769E+00  4.670271272262E+00
    14    14    20    4.687196647642E+00  4.706378747370E+00  4.707303227474E+00
    15    15    12    4.766477315700E-02 -3.168770422200E-02  4.728043819370E+00
    16    16    20   -2.341708347116E+00  2.375887146236E+00 -2.688634205100E-02
    17    17    12   -1.530664184600E-02  4.679742028351E+00 -1.169082287080E-01
    18    18    20   -4.706337110020E+00  1.313648760000E-03 -4.440942328700E-02
    19    19    12    9.813039356300E-02 -2.331498478230E+00 -2.313146897433E+00
    20    20    12    2.253378993294E+00  5.972703059900E-02 -2.358936015584E+00
    21    21    20   -2.350066040400E+00 -4.703488495918E+00 -2.305858446848E+00
    22    22    20    2.354698722736E+00 -2.336878582465E+00 -4.403700417200E-02
    23    23    12    4.649113857189E+00 -5.270035727300E-02 -4.801958325700E-02
    24    24    20    2.991244221700E-02 -4.707124269924E+00 -2.136211894400E-02
    25    25    20   -2.326401463992E+00 -2.345040995241E+00 -4.670150549187E+00
    26    26    20    3.483845750000E-03 -5.921760474000E-03 -4.672112334737E+00
    27    27    12   -4.670866308826E+00 -4.683036196354E+00 -4.541393584826E+00
    28    28     8    1.198871788830E-01 -5.647568460000E-03 -2.349389601757E+00
    29    29     8    2.230902847614E+00  2.321901709994E+00 -2.410585380256E+00
    30    30     8   -2.339866182943E+00 -2.344177332671E+00 -2.325343508589E+00
    31    31     8    2.433850018377E+00 -9.345055630000E-04 -4.994149022700E-02
    32    32     8    4.676454535942E+00  2.269729306909E+00  1.914332385700E-02
    33    33     8    1.154294881000E-03 -2.342196475089E+00 -7.188984042100E-02
    34    34     8    4.666790019092E+00 -7.341405640000E-04  2.306527466552E+00
    35    35     8    7.123702250453E+00  2.348143050852E+00  2.442998580838E+00
    36    36     8    2.331395232481E+00 -2.437209833454E+00  2.415651537913E+00
    37    37     8   -3.203973312000E-03  2.430020496105E+00 -9.499086001500E-02
    38    38     8    2.229459455182E+00  4.680681831544E+00 -8.952216383400E-02
    39    39     8   -2.337758870118E+00  8.224987462000E-03 -2.461780955800E-02
    40    40     8    2.330855840944E+00  2.341112171754E+00  2.407431054087E+00
    41    41     8    4.663836799382E+00  4.685611516859E+00  2.369791839828E+00
    42    42     8   -2.785706139000E-03 -6.029619571000E-03  2.393432121412E+00
    43    43     8    4.655002452940E+00  2.349240548675E+00  4.671930654152E+00
    44    44     8    7.102434211117E+00  4.671706827017E+00  4.766122723116E+00
    45    45     8    2.217280004357E+00 -2.073814442000E-03  4.696718017065E+00
    46    46     8    9.774695365000E-03  4.681044390213E+00  2.377293151303E+00
    47    47     8    2.329327384271E+00  7.119620045247E+00  2.399248959786E+00
    48    48     8   -2.422100784113E+00  2.347235389274E+00  2.361037498943E+00
    49    49     8    2.224937632571E+00  4.702472892075E+00  4.688648105289E+00
    50    50     8    4.669904371599E+00  7.025368229050E+00  4.744522089733E+00
    51    51     8    1.286979073870E-01  2.358895836316E+00  4.688861251289E+00
    52    52     8    4.777145120864E+00  4.782753640875E+00  7.022273056711E+00
    53    53     8    6.899853274831E+00  6.924508435924E+00  6.893477402745E+00
    54    54     8    2.341068936686E+00  2.342789961932E+00  6.962975774120E+00

 SYMMETRY CHANGED DURING OLD RUN :  INFORMATION ON SPACE GROUP LOST 
 NUMBER OF SYMMETRY OPERATORS         :    1
 *******************************************************************************
 LATTICE PARAMETERS (ANGSTROMS AND DEGREES) - BOHR = 0.5291772083 ANGSTROM
 PRIMITIVE CELL - CENTRING CODE 1/0 VOLUME=   690.086871 - DENSITY  3.290 g/cm^3
         A              B              C           ALPHA      BETA       GAMMA 
     9.92934128     9.92949389     9.91568181    60.075840  59.829423  59.867541
 *******************************************************************************
 ATOMS IN THE ASYMMETRIC UNIT   54 - ATOMS IN THE UNIT CELL:   54
     ATOM                 X/A                 Y/B                 Z/C    
 *******************************************************************************
      1 T  20 CA   -7.276143107947E-03 -4.741921382286E-03  8.209280431850E-03
      2 T  20 CA   -3.705616949114E-03 -3.753154723255E-03  3.365458828517E-01
      3 T  20 CA   -5.515946614912E-04 -2.091348160296E-03 -3.328975598010E-01
      4 T  20 CA    3.581532869119E-03  3.391832249253E-01 -5.447733822049E-03
      5 T  20 CA   -1.739338635158E-03  3.374710694608E-01  3.312854293099E-01
      6 T  20 CA    1.045691877965E-03  3.406155489332E-01 -3.371790801554E-01
      7 T  20 CA   -7.524685538890E-05 -3.332084669900E-01  9.404361362153E-05
      8 T  12 MG   -8.992566460039E-03 -3.253532487712E-01  3.467077350453E-01
      9 T  12 MG    5.881831444271E-03 -3.373965098294E-01 -3.444016154166E-01
     10 T  20 CA    3.379840864687E-01  1.738886591992E-03 -1.871826908121E-03
     11 T  20 CA    3.408989214001E-01  1.075333145072E-03  3.268541893315E-01
     12 T  20 CA    3.395069764673E-01 -2.306359799798E-03 -3.347889356393E-01
     13 T  12 MG    3.386966058901E-01  3.258200829617E-01 -5.857240485621E-03
     14 T  20 CA    3.350695246062E-01  3.342076711919E-01  3.347835812054E-01
     15 T  12 MG    3.315518617199E-01  3.416443960412E-01 -3.359080457355E-01
     16 T  20 CA    3.350295749157E-01 -3.382164109993E-01  3.559546671903E-03
     17 T  12 MG    3.259907464598E-01 -3.424821150120E-01  3.404179597625E-01
     18 T  20 CA    3.341008617634E-01 -3.392891622911E-01 -3.334013920715E-01
     19 T  12 MG   -3.380333297726E-01  8.573917323082E-03  5.930387008219E-03
     20 T  12 MG   -3.254339861415E-01 -1.098772273736E-02  3.336126994456E-01
     21 T  20 CA   -3.310214066713E-01  3.113588636836E-03 -3.385933191386E-01
     22 T  20 CA   -3.382410785520E-01  3.313275267474E-01  5.203067380768E-03
     23 T  12 MG   -3.402527573741E-01  3.322925722326E-01  3.322387395893E-01
     24 T  20 CA   -3.388489624829E-01  3.356481184199E-01 -3.314653838338E-01
     25 T  20 CA   -3.334085853194E-01 -3.310716626832E-01 -4.385943730416E-04
     26 T  20 CA   -3.339051035031E-01 -3.313408246218E-01  3.329018977801E-01
     27 T  12 MG   -3.227439680693E-01 -3.229131483053E-01 -3.437811974788E-01
     28 T   8 O    -1.765591052948E-01 -1.579909353877E-01  1.756615525459E-01
     29 T   8 O    -1.664238813256E-01 -1.772735421795E-01  4.967445789553E-01
     30 T   8 O    -1.651413706627E-01 -1.654671493187E-01 -1.685012781017E-01
     31 T   8 O    -1.779962003284E-01  1.702982525628E-01  1.775956488671E-01
     32 T   8 O    -1.720468923804E-01  1.737181667909E-01  4.947539891405E-01
     33 T   8 O    -1.719920104451E-01  1.616799904466E-01 -1.615472375374E-01
     34 T   8 O    -1.698829807897E-01  4.971755077337E-01  1.693476018808E-01
     35 T   8 O    -1.689116225368E-01 -4.848808970553E-01 -4.973993601700E-01
     36 T   8 O    -1.682810088369E-01 -4.884041544993E-01 -1.789579705185E-01
     37 T   8 O     1.664899770985E-01 -1.799361569914E-01  1.795502323402E-01
     38 T   8 O     1.671898089497E-01 -1.803230801838E-01  4.991085417378E-01
     39 T   8 O     1.663132369412E-01 -1.692544511322E-01 -1.648875352780E-01
     40 T   8 O     1.714234475620E-01  1.708752901301E-01  1.617864990514E-01
     41 T   8 O     1.685435949671E-01  1.679089118632E-01  4.982749150749E-01
     42 T   8 O     1.704794243906E-01  1.703130522849E-01 -1.712560256899E-01
     43 T   8 O     1.670072868387E-01  4.971650081202E-01  1.671837077976E-01
     44 T   8 O     1.637616866354E-01 -4.866929623765E-01 -4.991077073109E-01
     45 T   8 O     1.759891786191E-01  4.922244581568E-01 -1.763662303411E-01
     46 T   8 O    -4.978169394394E-01 -1.635402717688E-01  1.644935413558E-01
     47 T   8 O    -4.887852634230E-01 -1.699263871961E-01 -4.975292864109E-01
     48 T   8 O    -4.909347810702E-01 -1.722258972631E-01 -1.744658808747E-01
     49 T   8 O    -4.901362333256E-01  1.573508521478E-01  1.597013666017E-01
     50 T   8 O    -4.959076805489E-01  1.705633658051E-01  4.959958585669E-01
     51 T   8 O     4.931791302343E-01  1.744956979007E-01 -1.571183527780E-01
     52 T   8 O     4.991767895799E-01  4.997012226042E-01  1.816215894603E-01
     53 T   8 O     4.904228855985E-01  4.896736284787E-01  4.951323983599E-01
     54 T   8 O     4.957309916625E-01  4.952126000191E-01 -1.621276712914E-01

 T = ATOM BELONGING TO THE ASYMMETRIC UNIT
 *******************************************************************************
 * GEOMETRY EDITING - INPUT COORDINATES ARE GIVEN IN ANGSTROM         
 *******************************************************************************

 GCALCO - MAX INDICES DIRECT LATTICE VECTOR    15    14    15
 NO.OF VECTORS CREATED 6999 STARS 3500 RMAX   198.53816 BOHR

 GEOMETRY FOR WAVE FUNCTION - DIMENSIONALITY OF THE SYSTEM    3
 (NON PERIODIC DIRECTION: LATTICE PARAMETER FORMALLY SET TO 500)
 *******************************************************************************
 LATTICE PARAMETERS (ANGSTROMS AND DEGREES) - BOHR = 0.5291772083 ANGSTROM
 PRIMITIVE CELL - CENTRING CODE 1/0 VOLUME=   690.086871 - DENSITY  3.290 g/cm^3
         A              B              C           ALPHA      BETA       GAMMA 
     9.92934128     9.92949389     9.91568181    60.075840  59.829423  59.867541
 *******************************************************************************
 ATOMS IN THE ASYMMETRIC UNIT   54 - ATOMS IN THE UNIT CELL:   54
     ATOM                 X/A                 Y/B                 Z/C    
 *******************************************************************************
      1 T  20 CA   -7.276143107947E-03 -4.741921382286E-03  8.209280431850E-03
      2 T  20 CA   -3.705616949114E-03 -3.753154723255E-03  3.365458828517E-01
      3 T  20 CA   -5.515946614913E-04 -2.091348160296E-03 -3.328975598010E-01
      4 T  20 CA    3.581532869119E-03  3.391832249253E-01 -5.447733822049E-03
      5 T  20 CA   -1.739338635158E-03  3.374710694608E-01  3.312854293099E-01
      6 T  20 CA    1.045691877965E-03  3.406155489332E-01 -3.371790801554E-01
      7 T  20 CA   -7.524685538896E-05 -3.332084669900E-01  9.404361362156E-05
      8 T  12 MG   -8.992566460039E-03 -3.253532487712E-01  3.467077350453E-01
      9 T  12 MG    5.881831444271E-03 -3.373965098294E-01 -3.444016154166E-01
     10 T  20 CA    3.379840864687E-01  1.738886591992E-03 -1.871826908121E-03
     11 T  20 CA    3.408989214001E-01  1.075333145072E-03  3.268541893315E-01
     12 T  20 CA    3.395069764673E-01 -2.306359799798E-03 -3.347889356393E-01
     13 T  12 MG    3.386966058901E-01  3.258200829617E-01 -5.857240485621E-03
     14 T  20 CA    3.350695246062E-01  3.342076711919E-01  3.347835812054E-01
     15 T  12 MG    3.315518617199E-01  3.416443960412E-01 -3.359080457355E-01
     16 T  20 CA    3.350295749157E-01 -3.382164109993E-01  3.559546671903E-03
     17 T  12 MG    3.259907464598E-01 -3.424821150120E-01  3.404179597625E-01
     18 T  20 CA    3.341008617634E-01 -3.392891622911E-01 -3.334013920715E-01
     19 T  12 MG   -3.380333297726E-01  8.573917323083E-03  5.930387008219E-03
     20 T  12 MG   -3.254339861415E-01 -1.098772273736E-02  3.336126994456E-01
     21 T  20 CA   -3.310214066713E-01  3.113588636836E-03 -3.385933191386E-01
     22 T  20 CA   -3.382410785520E-01  3.313275267474E-01  5.203067380768E-03
     23 T  12 MG   -3.402527573741E-01  3.322925722326E-01  3.322387395893E-01
     24 T  20 CA   -3.388489624829E-01  3.356481184199E-01 -3.314653838338E-01
     25 T  20 CA   -3.334085853194E-01 -3.310716626832E-01 -4.385943730417E-04
     26 T  20 CA   -3.339051035031E-01 -3.313408246218E-01  3.329018977801E-01
     27 T  12 MG   -3.227439680693E-01 -3.229131483053E-01 -3.437811974787E-01
     28 T   8 O    -1.765591052948E-01 -1.579909353877E-01  1.756615525459E-01
     29 T   8 O    -1.664238813256E-01 -1.772735421795E-01  4.967445789553E-01
     30 T   8 O    -1.651413706627E-01 -1.654671493187E-01 -1.685012781017E-01
     31 T   8 O    -1.779962003284E-01  1.702982525628E-01  1.775956488671E-01
     32 T   8 O    -1.720468923804E-01  1.737181667909E-01  4.947539891405E-01
     33 T   8 O    -1.719920104451E-01  1.616799904466E-01 -1.615472375374E-01
     34 T   8 O    -1.698829807897E-01  4.971755077337E-01  1.693476018808E-01
     35 T   8 O    -1.689116225368E-01 -4.848808970553E-01 -4.973993601700E-01
     36 T   8 O    -1.682810088369E-01 -4.884041544993E-01 -1.789579705185E-01
     37 T   8 O     1.664899770985E-01 -1.799361569914E-01  1.795502323402E-01
     38 T   8 O     1.671898089497E-01 -1.803230801838E-01  4.991085417378E-01
     39 T   8 O     1.663132369412E-01 -1.692544511322E-01 -1.648875352780E-01
     40 T   8 O     1.714234475620E-01  1.708752901301E-01  1.617864990514E-01
     41 T   8 O     1.685435949671E-01  1.679089118632E-01  4.982749150749E-01
     42 T   8 O     1.704794243906E-01  1.703130522849E-01 -1.712560256899E-01
     43 T   8 O     1.670072868387E-01  4.971650081202E-01  1.671837077976E-01
     44 T   8 O     1.637616866354E-01 -4.866929623765E-01 -4.991077073109E-01
     45 T   8 O     1.759891786191E-01  4.922244581568E-01 -1.763662303411E-01
     46 T   8 O    -4.978169394394E-01 -1.635402717688E-01  1.644935413558E-01
     47 T   8 O    -4.887852634230E-01 -1.699263871961E-01 -4.975292864109E-01
     48 T   8 O    -4.909347810702E-01 -1.722258972631E-01 -1.744658808747E-01
     49 T   8 O    -4.901362333256E-01  1.573508521478E-01  1.597013666017E-01
     50 T   8 O    -4.959076805489E-01  1.705633658051E-01  4.959958585669E-01
     51 T   8 O     4.931791302343E-01  1.744956979007E-01 -1.571183527780E-01
     52 T   8 O     4.991767895799E-01  4.997012226042E-01  1.816215894603E-01
     53 T   8 O     4.904228855985E-01  4.896736284787E-01  4.951323983599E-01
     54 T   8 O     4.957309916625E-01  4.952126000191E-01 -1.621276712914E-01

 T = ATOM BELONGING TO THE ASYMMETRIC UNIT

 ****    1 SYMMOPS - TRANSLATORS IN FRACTIONAL UNITS
 **** MATRICES AND TRANSLATORS IN THE CRYSTALLOGRAPHIC REFERENCE FRAME
   V INV                    ROTATION MATRICES                   TRANSLATORS
   1   1  1.00  0.00  0.00  0.00  1.00  0.00  0.00  0.00  1.00  0.00  0.00  0.00

 DIRECT LATTICE VECTORS CARTESIAN COMPONENTS (ANGSTROM)
          X                    Y                    Z
   0.101600902719E-01   0.702062981047E+01   0.702157191417E+01
   0.700738304702E+01   0.368635210300E-02   0.703501373175E+01
   0.699517919397E+01   0.702766736265E+01   0.102541113319E-01


 CARTESIAN COORDINATES - PRIMITIVE CELL
 *******************************************************************************
 *      ATOM          X(ANGSTROM)         Y(ANGSTROM)         Z(ANGSTROM)
 *******************************************************************************
    1    20 CA    2.412300189900E-02  6.591504561000E-03 -8.436526525400E-02
    2    20 CA    2.327861315357E+00  2.339102916682E+00 -4.897177195900E-02
    3    20 CA   -2.343338565939E+00 -2.343373567489E+00 -2.199929324900E-02
    4    20 CA    2.338715294586E+00 -1.188989595900E-02  2.411250773863E+00
    5    20 CA    4.682172321536E+00  2.317196583797E+00  2.365297754090E+00
    6    20 CA    2.820616132500E-02 -2.360985372560E+00  2.400119992887E+00
    7    20 CA   -2.334262275295E+00 -1.095696815000E-03 -2.344653527683E+00
    8    12 MG    1.453165295580E-01  2.372213787161E+00 -2.348451345152E+00
    9    12 MG   -4.773357837696E+00 -2.380289593463E+00 -2.335820909729E+00
   10    20 CA    2.525228612000E-03  2.359712986204E+00  2.385393466116E+00
   11    20 CA    2.297402459739E+00  4.690351612705E+00  2.404562874762E+00
   12    20 CA   -2.354620721988E+00  3.075902142600E-02  2.364214414747E+00
   13    12 MG    2.245614867036E+00  2.337901837769E+00  4.670271272262E+00
   14    20 CA    4.687196647642E+00  4.706378747370E+00  4.707303227474E+00
   15    12 MG    4.766477315700E-02 -3.168770422200E-02  4.728043819370E+00
   16    20 CA   -2.341708347116E+00  2.375887146236E+00 -2.688634205100E-02
   17    12 MG   -1.530664184600E-02  4.679742028351E+00 -1.169082287080E-01
   18    20 CA   -4.706337110020E+00  1.313648760000E-03 -4.440942328700E-02
   19    12 MG    9.813039356300E-02 -2.331498478230E+00 -2.313146897433E+00
   20    12 MG    2.253378993294E+00  5.972703059900E-02 -2.358936015584E+00
   21    20 CA   -2.350066040400E+00 -4.703488495918E+00 -2.305858446848E+00
   22    20 CA    2.354698722736E+00 -2.336878582465E+00 -4.403700417200E-02
   23    12 MG    4.649113857189E+00 -5.270035727300E-02 -4.801958325700E-02
   24    20 CA    2.991244221700E-02 -4.707124269924E+00 -2.136211894400E-02
   25    20 CA   -2.326401463992E+00 -2.345040995241E+00 -4.670150549187E+00
   26    20 CA    3.483845750000E-03 -5.921760474001E-03 -4.672112334737E+00
   27    12 MG   -4.670866308826E+00 -4.683036196354E+00 -4.541393584826E+00
   28     8 O     1.198871788830E-01 -5.647568460000E-03 -2.349389601757E+00
   29     8 O     2.230902847614E+00  2.321901709994E+00 -2.410585380256E+00
   30     8 O    -2.339866182943E+00 -2.344177332671E+00 -2.325343508589E+00
   31     8 O     2.433850018377E+00 -9.345055630000E-04 -4.994149022700E-02
   32     8 O     4.676454535942E+00  2.269729306909E+00  1.914332385700E-02
   33     8 O     1.154294881000E-03 -2.342196475089E+00 -7.188984042100E-02
   34     8 O     4.666790019092E+00 -7.341405640000E-04  2.306527466552E+00
   35     8 O     7.123702250453E+00  2.348143050852E+00  2.442998580838E+00
   36     8 O     2.331395232481E+00 -2.437209833454E+00  2.415651537913E+00
   37     8 O    -3.203973312000E-03  2.430020496105E+00 -9.499086001500E-02
   38     8 O     2.229459455182E+00  4.680681831544E+00 -8.952216383400E-02
   39     8 O    -2.337758870118E+00  8.224987462000E-03 -2.461780955800E-02
   40     8 O     2.330855840944E+00  2.341112171754E+00  2.407431054087E+00
   41     8 O     4.663836799382E+00  4.685611516859E+00  2.369791839828E+00
   42     8 O    -2.785706139000E-03 -6.029619571000E-03  2.393432121412E+00
   43     8 O     4.655002452940E+00  2.349240548675E+00  4.671930654152E+00
   44     8 O     7.102434211117E+00  4.671706827017E+00  4.766122723116E+00
   45     8 O     2.217280004357E+00 -2.073814442000E-03  4.696718017065E+00
   46     8 O     9.774695365000E-03  4.681044390213E+00  2.377293151303E+00
   47     8 O     2.329327384271E+00  7.119620045247E+00  2.399248959786E+00
   48     8 O    -2.422100784113E+00  2.347235389274E+00  2.361037498943E+00
   49     8 O     2.224937632571E+00  4.702472892075E+00  4.688648105289E+00
   50     8 O     4.669904371599E+00  7.025368229050E+00  4.744522089733E+00
   51     8 O     1.286979073870E-01  2.358895836316E+00  4.688861251289E+00
   52     8 O     4.777145120864E+00  4.782753640875E+00  7.022273056711E+00
   53     8 O     6.899853274831E+00  6.924508435924E+00  6.893477402745E+00
   54     8 O     2.341068936686E+00  2.342789961932E+00  6.962975774120E+00
 WARNING **** CRYSTA **** TESTGEOM  DIRECTIVE - GEOMETRY EDITING COMPLETE
 TTTTTTTTTTTTTTTTTTTTTTTTTTTTTT END         TELAPSE        0.01 TCPU        0.01
 EEEEEEEEEE TERMINATION  DATE 10 03 2023 TIME 10:32:09.5
Fri 10 Mar 2023 10:32:09 GMT
Contents of temporary directory:
total 8
-rw-r--r--  1 brunocamino  admin  4027 10 Mar 10:32 fort.34
SCF abnormal end - no wf written in fort.9
geometry input file fort.34 saved as /Users/brunocamino/Desktop/Imperial/cmsg_icl/solid-solutions/./data/crystal/testgeom_opt/CaMgO_testgeom_3262.gui
temporary directory /Users/brunocamino/crystal/tmp removed
