date Fri 10 Mar 2023 10:30:24 GMT
hostname MacBook-Pro-8
system Darwin MacBook-Pro-8 21.6.0 Darwin Kernel Version 21.6.0: Mon Aug 22 20:20:05 PDT 2022; root:xnu-8020.140.49~2/RELEASE_ARM64_T8101 arm64
user brunocamino
output data in /Users/brunocamino/Desktop/Imperial/cmsg_icl/solid-solutions/./data/crystal/testgeom_opt/CaMgO_testgeom_1953.out
crystal executable in /Users/brunocamino/crystal
input data in /Users/brunocamino/Desktop/Imperial/cmsg_icl/solid-solutions/./data/crystal/testgeom_opt/CaMgO_testgeom_1953.d12
temporary directory /Users/brunocamino/crystal/tmp
external geometry input from /Users/brunocamino/Desktop/Imperial/cmsg_icl/solid-solutions/./data/crystal/testgeom_opt/CaMgO_testgeom_1953.gui
external geometry input saved in /Users/brunocamino/Desktop/Imperial/cmsg_icl/solid-solutions/./data/crystal/testgeom_opt/CaMgO_testgeom_1953_inp.gui
Bulk 
EXTERNAL
EXTPRT
TESTGEOM
END

         
 *******************************************************************************
 *                                                                             *
 *                               CRYSTAL17                                     *
 *                      public : 1.0.1 - Feb 1st, 2017                         *
 *                       HTTP://WWW.CRYSTAL.UNITO.IT                           *
 *                                                                             *
 *                              MAIN AUTHORS                                   *
 *                                                                             *
 *  R. DOVESI(1,11), V.R. SAUNDERS(2), C. ROETTI(1,11), R. ORLANDO(1,11),      *
 *  C.M. ZICOVICH-WILSON(1,3), F. PASCALE(4), B. CIVALLERI(1,11),              *
 *  K. DOLL(5), N.M. HARRISON(2,6), I.J. BUSH(7), Ph. D'ARCO(8),               *
 *  M. LLUNELL(9), M. CAUSA'(10), Y. NOEL(8), L. MASCHIO(1,11), A. ERBA(1,11)  *
 *  M. RE'RAT(14), S. CASASSA(1,11)                                            *
 *                                                                             *
 *        CONTRIBUTIONS TO THE CODE HAVE ALSO BEEN GIVEN BY                    *
 *                                                                             *
 *  M. FERRABONE(1,11), M. DE LA PIERRE(1,11), M. FERRERO(1,11),               *
 *  J. BAIMA(1,11), E. ALBANESE(1,11), M.F. PEINTINGER(12), R. BAST(13),       *
 *  B. KIRTMAN(15), V. LACIVITA(1,11), R. DEMICHELIS(1,16)                     *
 *  G. BRANDEBURG(17), S. SALUSTRO(1,11), G. SANSONE(1,11)                     *
 *  M.T. RUGGIERO(18)                                                          *
 *                                                                             *
 * (1) THEORETICAL CHEMISTRY GROUP - UNIVERSITA' DI TORINO - TORINO (ITALY)    *

 * (2) COMPUTATIONAL SCIENCE & ENGINEERING DEPARTMENT - STFC DARESBURY (UK)    *
 * (3) UNIVERSIDAD AUTONOMA DEL ESTADO DE MORELOS - CUERNAVACA (MEXICO)        *
 * (4) UNIVERSITE' DE LORRAINE - NANCY (FRANCE)                                *
 * (5) UNIVERSITAET STUTTGART- STUTTGART (GERMANY)                             *
 * (6) IMPERIAL COLLEGE - LONDON (UK)                                          *
 * (7) OXFORD E-RESEARCH CENTRE - OXFORD (UK)                                  *
 * (8) UPMC - SORBONNE UNIVERSITES - PARIS (FRANCE)                            *
 * (9) UNIVERSIDAD DE BARCELONA - BARCELONA (SPAIN)                            *
 *(10) UNIVERSITA' DI NAPOLI "FEDERICO II" - NAPOLI (ITALY)                    *
 *(11) NIS - NANOSTRUCTURED INTERFACES AND SURFACES - TORINO (ITALY)           *
 *(12) MPI FUER CHEMISCHE ENERGIEKONVERSION - MUELHEIM AN DER RUHR (GERMANY)   *
 *(13) UNIVERSITY OF TROMSO - TROMSO (NORWAY)                                  *
 *(14) UNIVERSITE' DE PAU ET DES PAYS DE L'ADOUR - PAU (FRANCE)                *
 *(15) UNIVERSITY OF CALIFORNIA SANTA BARBARA - SANTA BARBARA (USA)            *
 *(16) CURTIN UNIVERSITY - PERTH (AUSTRALIA)                                   *
 *(17) UNIVERSITY COLLEGE LONDON - LONDON (UK)                                 *
 *(18) CAMBRIDGE UNIVERSITY - CAMBRIDGE (UK)                                   *
 *                                                                             *
 *******************************************************************************
 EEEEEEEEEE STARTING  DATE 10 03 2023 TIME 10:30:24.5
 Bulk                                                                            

 GEOMETRY INPUT FROM EXTERNAL FILE (FORTRAN UNIT 34)
 3D - CRYSTAL 

 *******************************************************************************
 LATTICE PARAMETERS  (ANGSTROMS AND DEGREES) - PRIMITIVE CELL
       A          B          C        ALPHA      BETA     GAMMA        VOLUME
    9.92003    9.92236    9.93964    59.87443  60.00615  60.11359    691.768346
 INFORMATION **** CHKGRP **** SPGR WITH NO INVERSION

 NUMBER OF IRREDUCIBLE ATOMS IN THE CELL:   54

 CARTESIAN COORDINATES (ANGSTROM) - IRREDUCIBLE ATOMS AND SYMMETRY RELATED

 AT.IRR.  AT  AT.N.          X                   Y                   Z
     1     1    20    9.551275571000E-03 -2.952308522400E-02 -4.893122217800E-02
     2     2    20    2.374097593364E+00  2.334282047617E+00 -5.631252176600E-02
     3     3    20   -2.329576361006E+00 -2.389195354668E+00 -4.196008403700E-02
     4     4    20    2.326041757147E+00 -1.005667722300E-02  2.411550918202E+00
     5     5    20    4.708143720665E+00  2.353004807339E+00  2.388847378048E+00
     6     6    20    1.872359792900E-02 -2.355406323862E+00  2.356772118272E+00
     7     7    20   -2.369797409060E+00 -2.869781400300E-02 -2.323493169627E+00
     8     8    20    5.423966833400E-02  2.372280499761E+00 -2.329822711601E+00
     9     9    12   -4.689049873289E+00 -2.390499357338E+00 -2.358011761668E+00
    10    10    20    5.283090841000E-03  2.334541814834E+00  2.429832489904E+00
    11    11    20    2.354219795419E+00  4.693809718639E+00  2.421734856909E+00
    12    12    20   -2.362401698263E+00  1.311946177200E-02  2.412933972411E+00
    13    13    12    2.307107958452E+00  2.391728777471E+00  4.665961983846E+00
    14    14    12    4.635175406750E+00  4.700781617300E+00  4.675314337708E+00
    15    15    12    5.765562647800E-02 -3.331842654700E-02  4.690370695615E+00
    16    16    20   -2.386290865674E+00  2.359866838539E+00 -6.398400237000E-03
    17    17    20   -1.354191320000E-03  4.718541084832E+00 -3.136708000500E-02
    18    18    20   -4.718842764309E+00  4.537221454700E-02 -4.830852006800E-02
    19    19    12    3.351985980100E-02 -2.410242200930E+00 -2.300819266055E+00
    20    20    12    2.359836307884E+00 -2.536428160000E-02 -2.349766386973E+00
    21    21    12   -2.412518604807E+00 -4.656376493585E+00 -2.345834947096E+00
    22    22    20    2.330869538247E+00 -2.375789955683E+00 -6.472988817600E-02
    23    23    20    4.708321902267E+00  2.244524289000E-02 -8.515890329200E-02
    24    24    12   -3.379216852400E-02 -4.682221501842E+00 -1.409241160620E-01
    25    25    20   -2.363016406536E+00 -2.377106661951E+00 -4.634533564084E+00
    26    26    20    3.703027650000E-02  1.809516697900E-02 -4.656666067605E+00
    27    27    12   -4.702781150679E+00 -4.699969054293E+00 -4.566966015074E+00
    28    28     8    1.044980974100E-01 -7.034086963600E-02 -2.333439316961E+00
    29    29     8    2.417966577694E+00  2.378927899540E+00 -2.414286621511E+00
    30    30     8   -2.388190439957E+00 -2.449177018905E+00 -2.344589352188E+00
    31    31     8    2.338451797577E+00 -7.548157630000E-04 -6.070782434300E-02
    32    32     8    4.748463770333E+00  2.330052663663E+00 -9.337756729700E-02
    33    33     8   -5.436552434000E-03 -2.426580529105E+00 -1.142275526940E-01
    34    34     8    4.692619090535E+00  1.232507725000E-03  2.376827692530E+00
    35    35     8    7.122562149021E+00  2.342318280610E+00  2.288561928726E+00
    36    36     8    2.347555486321E+00 -2.434673460644E+00  2.406923102130E+00
    37    37     8    1.262183277500E-02  2.345413301133E+00  1.619112246700E-02
    38    38     8    2.342120322029E+00  4.678075775684E+00 -5.284861454500E-02
    39    39     8   -2.351852612365E+00 -2.987346787000E-03 -2.409041930400E-02
    40    40     8    2.353250591101E+00  2.337967552926E+00  2.416822860698E+00
    41    41     8    4.697293914406E+00  4.675042543689E+00  2.400491679672E+00
    42    42     8   -7.338706597000E-03 -2.348513513000E-03  2.393038232794E+00
    43    43     8    4.640084352895E+00  2.441730619823E+00  4.680925466240E+00
    44    44     8    7.091682270716E+00  4.779812809217E+00  4.673770551620E+00
    45    45     8    2.245765414601E+00  1.244442961800E-02  4.667183664917E+00
    46    46     8    2.753105891000E-03  4.680293409427E+00  2.433668037629E+00
    47    47     8    2.353420702330E+00  7.119299457594E+00  2.426650030945E+00
    48    48     8   -2.438714439220E+00  2.336819198765E+00  2.391035423410E+00
    49    49     8    2.369920270458E+00  4.674788202242E+00  4.668510229877E+00
    50    50     8    4.637317917141E+00  6.990079401500E+00  4.664550999905E+00
    51    51     8    8.654194410800E-02  2.399711066011E+00  4.746370792384E+00
    52    52     8    4.682481107226E+00  4.691171834904E+00  6.922057119825E+00
    53    53     8    7.035159640335E+00  7.118048268912E+00  6.883105255525E+00
    54    54     8    2.252581519505E+00  2.341183016541E+00  6.936064174533E+00

 SYMMETRY CHANGED DURING OLD RUN :  INFORMATION ON SPACE GROUP LOST 
 NUMBER OF SYMMETRY OPERATORS         :    1
 *******************************************************************************
 LATTICE PARAMETERS (ANGSTROMS AND DEGREES) - BOHR = 0.5291772083 ANGSTROM
 PRIMITIVE CELL - CENTRING CODE 1/0 VOLUME=   691.768346 - DENSITY  3.282 g/cm^3
         A              B              C           ALPHA      BETA       GAMMA 
     9.92002830     9.92235677     9.93964447    59.874435  60.006150  60.113590
 *******************************************************************************
 ATOMS IN THE ASYMMETRIC UNIT   54 - ATOMS IN THE UNIT CELL:   54
     ATOM                 X/A                 Y/B                 Z/C    
 *******************************************************************************
      1 T  20 CA   -6.272294709863E-03 -7.124967611978E-04  2.070342452732E-03
      2 T  20 CA   -6.306047701307E-03 -1.689189340802E-03  3.389514177380E-01
      3 T  20 CA   -7.778180127747E-03  1.746954741157E-03 -3.326808157988E-01
      4 T  20 CA    6.189831480289E-03  3.383483322169E-01 -7.613301102474E-03
      5 T  20 CA    3.763417965298E-03  3.375777106319E-01  3.315564490265E-01
      6 T  20 CA   -9.600694982930E-04  3.376357094559E-01 -3.346749142118E-01
      7 T  20 CA    4.390467721549E-04 -3.324039585371E-01 -4.543393653491E-03
      8 T  20 CA   -1.095671608464E-03 -3.317271216056E-01  3.391372177449E-01
      9 T  12 MG   -5.589885032398E-03 -3.313444225717E-01 -3.350712556828E-01
     10 T  20 CA    3.392832863469E-01  7.554825803252E-03 -6.886023638722E-03
     11 T  20 CA    3.399835348867E-01  5.740918596837E-03  3.286138422628E-01
     12 T  20 CA    3.408265911288E-01  3.552220477170E-03 -3.392384772131E-01
     13 T  12 MG    3.394665420511E-01  3.268544583980E-01  1.093747614993E-03
     14 T  12 MG    3.393166206270E-01  3.283838201562E-01  3.302888764941E-01
     15 T  12 MG    3.281808812718E-01  3.415942645278E-01 -3.331850894731E-01
     16 T  20 CA    3.370730869730E-01 -3.383031997798E-01 -1.080197497383E-03
     17 T  20 CA    3.339712778827E-01 -3.387214131132E-01  3.381403306479E-01
     18 T  20 CA    3.348308535912E-01 -3.420895717344E-01 -3.286567595016E-01
     19 T  12 MG   -3.382258648276E-01  9.817687695047E-03 -4.958983086278E-03
     20 T  12 MG   -3.370098007660E-01  1.651612400012E-03  3.336738468715E-01
     21 T  12 MG   -3.277624688165E-01 -7.130307641153E-03 -3.355107505518E-01
     22 T  20 CA   -3.393471744794E-01  3.304171232059E-01  1.086741664518E-03
     23 T  20 CA   -3.387756675316E-01  3.269710034238E-01  3.422683080746E-01
     24 T  12 MG   -3.411813036651E-01  3.213240961361E-01 -3.257494869310E-01
     25 T  20 CA   -3.322130314267E-01 -3.296251773807E-01 -6.269688806808E-03
     26 T  20 CA   -3.335833727566E-01 -3.313708137372E-01  3.364231426133E-01
     27 T  12 MG   -3.267282007238E-01 -3.255056439950E-01 -3.427717796152E-01
     28 T   8 O    -1.789159717638E-01 -1.542792030860E-01  1.690333447892E-01
     29 T   8 O    -1.744769743996E-01 -1.702281199024E-01 -4.863839252959E-01
     30 T   8 O    -1.721767772511E-01 -1.626630169148E-01 -1.767010722505E-01
     31 T   8 O    -1.704190603577E-01  1.619275553118E-01  1.704593540778E-01
     32 T   8 O    -1.778357284100E-01  1.647280169336E-01 -4.899726280802E-01
     33 T   8 O    -1.806150906550E-01  1.644427005552E-01 -1.650214856687E-01
     34 T   8 O    -1.635143194945E-01 -4.967270690258E-01  1.638469796345E-01
     35 T   8 O    -1.755806363721E-01 -4.972149586222E-01 -4.904669764008E-01
     36 T   8 O    -1.683791852266E-01 -4.876026435546E-01 -1.784055994409E-01
     37 T   8 O     1.673284970583E-01 -1.651501680448E-01  1.667525205868E-01
     38 T   8 O     1.631656334441E-01 -1.708032330775E-01 -4.966719818467E-01
     39 T   8 O     1.650538043319E-01 -1.686719991650E-01 -1.656232253708E-01
     40 T   8 O     1.718895502346E-01  1.732686771956E-01  1.611414095890E-01
     41 T   8 O     1.707689360029E-01  1.721008134966E-01  4.953011327744E-01
     42 T   8 O     1.710919093432E-01  1.706253274213E-01 -1.715604999503E-01
     43 T   8 O     1.784507491673E-01  4.901810200545E-01  1.693750595637E-01
     44 T   8 O     1.704200340953E-01  4.972416944452E-01 -4.894055207353E-01
     45 T   8 O     1.744269450411E-01  4.922004654032E-01 -1.727762529017E-01
     46 T   8 O    -4.931698589045E-01 -1.595792020213E-01  1.596960799568E-01
     47 T   8 O    -4.868355364968E-01 -1.668774631745E-01 -4.990801640779E-01
     48 T   8 O    -4.897947369418E-01 -1.690926940341E-01 -1.776323817146E-01
     49 T   8 O     4.978164251439E-01  1.687421343062E-01  1.679470449373E-01
     50 T   8 O    -4.985312201570E-01  1.645634127175E-01  4.942254872127E-01
     51 T   8 O    -4.965640286090E-01  1.741982912360E-01 -1.618803122718E-01
     52 T   8 O     4.955735832507E-01  4.929581658219E-01  1.725405698094E-01
     53 T   8 O     4.986226919060E-01  4.843859219179E-01 -4.846762979409E-01
     54 T   8 O    -4.982955712859E-01  4.887781521433E-01 -1.684740054295E-01

 T = ATOM BELONGING TO THE ASYMMETRIC UNIT
 *******************************************************************************
 * GEOMETRY EDITING - INPUT COORDINATES ARE GIVEN IN ANGSTROM         
 *******************************************************************************

 GCALCO - MAX INDICES DIRECT LATTICE VECTOR    14    14    14
 NO.OF VECTORS CREATED 6999 STARS 3500 RMAX   198.68909 BOHR

 GEOMETRY FOR WAVE FUNCTION - DIMENSIONALITY OF THE SYSTEM    3
 (NON PERIODIC DIRECTION: LATTICE PARAMETER FORMALLY SET TO 500)
 *******************************************************************************
 LATTICE PARAMETERS (ANGSTROMS AND DEGREES) - BOHR = 0.5291772083 ANGSTROM
 PRIMITIVE CELL - CENTRING CODE 1/0 VOLUME=   691.768346 - DENSITY  3.282 g/cm^3
         A              B              C           ALPHA      BETA       GAMMA 
     9.92002830     9.92235677     9.93964447    59.874435  60.006150  60.113590
 *******************************************************************************
 ATOMS IN THE ASYMMETRIC UNIT   54 - ATOMS IN THE UNIT CELL:   54
     ATOM                 X/A                 Y/B                 Z/C    
 *******************************************************************************
      1 T  20 CA   -6.272294709863E-03 -7.124967611978E-04  2.070342452732E-03
      2 T  20 CA   -6.306047701307E-03 -1.689189340802E-03  3.389514177380E-01
      3 T  20 CA   -7.778180127747E-03  1.746954741157E-03 -3.326808157988E-01
      4 T  20 CA    6.189831480289E-03  3.383483322169E-01 -7.613301102474E-03
      5 T  20 CA    3.763417965298E-03  3.375777106319E-01  3.315564490265E-01
      6 T  20 CA   -9.600694982931E-04  3.376357094559E-01 -3.346749142118E-01
      7 T  20 CA    4.390467721550E-04 -3.324039585371E-01 -4.543393653491E-03
      8 T  20 CA   -1.095671608464E-03 -3.317271216056E-01  3.391372177449E-01
      9 T  12 MG   -5.589885032398E-03 -3.313444225717E-01 -3.350712556828E-01
     10 T  20 CA    3.392832863469E-01  7.554825803252E-03 -6.886023638722E-03
     11 T  20 CA    3.399835348867E-01  5.740918596837E-03  3.286138422628E-01
     12 T  20 CA    3.408265911288E-01  3.552220477170E-03 -3.392384772131E-01
     13 T  12 MG    3.394665420511E-01  3.268544583980E-01  1.093747614993E-03
     14 T  12 MG    3.393166206270E-01  3.283838201562E-01  3.302888764941E-01
     15 T  12 MG    3.281808812718E-01  3.415942645278E-01 -3.331850894731E-01
     16 T  20 CA    3.370730869730E-01 -3.383031997798E-01 -1.080197497382E-03
     17 T  20 CA    3.339712778827E-01 -3.387214131132E-01  3.381403306479E-01
     18 T  20 CA    3.348308535912E-01 -3.420895717344E-01 -3.286567595016E-01
     19 T  12 MG   -3.382258648276E-01  9.817687695047E-03 -4.958983086278E-03
     20 T  12 MG   -3.370098007660E-01  1.651612400012E-03  3.336738468715E-01
     21 T  12 MG   -3.277624688165E-01 -7.130307641153E-03 -3.355107505518E-01
     22 T  20 CA   -3.393471744794E-01  3.304171232059E-01  1.086741664518E-03
     23 T  20 CA   -3.387756675316E-01  3.269710034238E-01  3.422683080746E-01
     24 T  12 MG   -3.411813036651E-01  3.213240961361E-01 -3.257494869310E-01
     25 T  20 CA   -3.322130314267E-01 -3.296251773807E-01 -6.269688806808E-03
     26 T  20 CA   -3.335833727566E-01 -3.313708137372E-01  3.364231426133E-01
     27 T  12 MG   -3.267282007238E-01 -3.255056439950E-01 -3.427717796152E-01
     28 T   8 O    -1.789159717638E-01 -1.542792030860E-01  1.690333447892E-01
     29 T   8 O    -1.744769743996E-01 -1.702281199024E-01 -4.863839252959E-01
     30 T   8 O    -1.721767772511E-01 -1.626630169148E-01 -1.767010722505E-01
     31 T   8 O    -1.704190603577E-01  1.619275553118E-01  1.704593540778E-01
     32 T   8 O    -1.778357284100E-01  1.647280169336E-01 -4.899726280802E-01
     33 T   8 O    -1.806150906550E-01  1.644427005552E-01 -1.650214856687E-01
     34 T   8 O    -1.635143194945E-01 -4.967270690258E-01  1.638469796345E-01
     35 T   8 O    -1.755806363721E-01 -4.972149586222E-01 -4.904669764008E-01
     36 T   8 O    -1.683791852266E-01 -4.876026435546E-01 -1.784055994409E-01
     37 T   8 O     1.673284970583E-01 -1.651501680448E-01  1.667525205868E-01
     38 T   8 O     1.631656334441E-01 -1.708032330775E-01 -4.966719818467E-01
     39 T   8 O     1.650538043319E-01 -1.686719991650E-01 -1.656232253708E-01
     40 T   8 O     1.718895502346E-01  1.732686771956E-01  1.611414095890E-01
     41 T   8 O     1.707689360029E-01  1.721008134966E-01  4.953011327744E-01
     42 T   8 O     1.710919093432E-01  1.706253274213E-01 -1.715604999503E-01
     43 T   8 O     1.784507491673E-01  4.901810200545E-01  1.693750595637E-01
     44 T   8 O     1.704200340953E-01  4.972416944452E-01 -4.894055207353E-01
     45 T   8 O     1.744269450411E-01  4.922004654032E-01 -1.727762529017E-01
     46 T   8 O    -4.931698589045E-01 -1.595792020213E-01  1.596960799568E-01
     47 T   8 O    -4.868355364968E-01 -1.668774631745E-01 -4.990801640779E-01
     48 T   8 O    -4.897947369418E-01 -1.690926940341E-01 -1.776323817146E-01
     49 T   8 O     4.978164251439E-01  1.687421343062E-01  1.679470449373E-01
     50 T   8 O    -4.985312201570E-01  1.645634127175E-01  4.942254872127E-01
     51 T   8 O    -4.965640286090E-01  1.741982912360E-01 -1.618803122718E-01
     52 T   8 O     4.955735832507E-01  4.929581658219E-01  1.725405698094E-01
     53 T   8 O     4.986226919060E-01  4.843859219179E-01 -4.846762979409E-01
     54 T   8 O    -4.982955712859E-01  4.887781521433E-01 -1.684740054295E-01

 T = ATOM BELONGING TO THE ASYMMETRIC UNIT

 ****    1 SYMMOPS - TRANSLATORS IN FRACTIONAL UNITS
 **** MATRICES AND TRANSLATORS IN THE CRYSTALLOGRAPHIC REFERENCE FRAME
   V INV                    ROTATION MATRICES                   TRANSLATORS
   1   1  1.00  0.00  0.00  0.00  1.00  0.00  0.00  0.00  1.00  0.00  0.00  0.00

 DIRECT LATTICE VECTORS CARTESIAN COMPONENTS (ANGSTROM)
          X                    Y                    Z
   0.183485622133E-02   0.702323533525E+01   0.700579214669E+01
   0.703305640083E+01  -0.305767044905E-03   0.699923434746E+01
   0.703932541095E+01   0.701743749601E+01  -0.916444758054E-03


 CARTESIAN COORDINATES - PRIMITIVE CELL
 *******************************************************************************
 *      ATOM          X(ANGSTROM)         Y(ANGSTROM)         Z(ANGSTROM)
 *******************************************************************************
    1    20 CA    9.551275571000E-03 -2.952308522400E-02 -4.893122217800E-02
    2    20 CA    2.374097593364E+00  2.334282047617E+00 -5.631252176600E-02
    3    20 CA   -2.329576361006E+00 -2.389195354668E+00 -4.196008403700E-02
    4    20 CA    2.326041757147E+00 -1.005667722300E-02  2.411550918202E+00
    5    20 CA    4.708143720665E+00  2.353004807339E+00  2.388847378048E+00
    6    20 CA    1.872359792900E-02 -2.355406323862E+00  2.356772118272E+00
    7    20 CA   -2.369797409060E+00 -2.869781400300E-02 -2.323493169627E+00
    8    20 CA    5.423966833400E-02  2.372280499761E+00 -2.329822711601E+00
    9    12 MG   -4.689049873289E+00 -2.390499357338E+00 -2.358011761668E+00
   10    20 CA    5.283090841000E-03  2.334541814834E+00  2.429832489904E+00
   11    20 CA    2.354219795419E+00  4.693809718639E+00  2.421734856909E+00
   12    20 CA   -2.362401698263E+00  1.311946177200E-02  2.412933972411E+00
   13    12 MG    2.307107958452E+00  2.391728777471E+00  4.665961983846E+00
   14    12 MG    4.635175406750E+00  4.700781617300E+00  4.675314337708E+00
   15    12 MG    5.765562647800E-02 -3.331842654700E-02  4.690370695615E+00
   16    20 CA   -2.386290865674E+00  2.359866838539E+00 -6.398400237000E-03
   17    20 CA   -1.354191320000E-03  4.718541084832E+00 -3.136708000500E-02
   18    20 CA   -4.718842764309E+00  4.537221454700E-02 -4.830852006800E-02
   19    12 MG    3.351985980100E-02 -2.410242200930E+00 -2.300819266055E+00
   20    12 MG    2.359836307884E+00 -2.536428160000E-02 -2.349766386973E+00
   21    12 MG   -2.412518604807E+00 -4.656376493585E+00 -2.345834947096E+00
   22    20 CA    2.330869538247E+00 -2.375789955683E+00 -6.472988817600E-02
   23    20 CA    4.708321902267E+00  2.244524289000E-02 -8.515890329200E-02
   24    12 MG   -3.379216852400E-02 -4.682221501842E+00 -1.409241160620E-01
   25    20 CA   -2.363016406536E+00 -2.377106661951E+00 -4.634533564084E+00
   26    20 CA    3.703027650000E-02  1.809516697900E-02 -4.656666067605E+00
   27    12 MG   -4.702781150679E+00 -4.699969054293E+00 -4.566966015074E+00
   28     8 O     1.044980974100E-01 -7.034086963600E-02 -2.333439316961E+00
   29     8 O     2.417966577694E+00  2.378927899540E+00 -2.414286621511E+00
   30     8 O    -2.388190439957E+00 -2.449177018905E+00 -2.344589352188E+00
   31     8 O     2.338451797577E+00 -7.548157630000E-04 -6.070782434300E-02
   32     8 O     4.748463770333E+00  2.330052663663E+00 -9.337756729700E-02
   33     8 O    -5.436552434000E-03 -2.426580529105E+00 -1.142275526940E-01
   34     8 O     4.692619090535E+00  1.232507725000E-03  2.376827692530E+00
   35     8 O     7.122562149021E+00  2.342318280610E+00  2.288561928726E+00
   36     8 O     2.347555486321E+00 -2.434673460644E+00  2.406923102130E+00
   37     8 O     1.262183277500E-02  2.345413301133E+00  1.619112246700E-02
   38     8 O     2.342120322029E+00  4.678075775684E+00 -5.284861454500E-02
   39     8 O    -2.351852612365E+00 -2.987346787000E-03 -2.409041930400E-02
   40     8 O     2.353250591101E+00  2.337967552926E+00  2.416822860698E+00
   41     8 O     4.697293914406E+00  4.675042543689E+00  2.400491679672E+00
   42     8 O    -7.338706597000E-03 -2.348513513000E-03  2.393038232794E+00
   43     8 O     4.640084352895E+00  2.441730619823E+00  4.680925466240E+00
   44     8 O     7.091682270716E+00  4.779812809217E+00  4.673770551620E+00
   45     8 O     2.245765414601E+00  1.244442961800E-02  4.667183664917E+00
   46     8 O     2.753105891000E-03  4.680293409427E+00  2.433668037629E+00
   47     8 O     2.353420702330E+00  7.119299457594E+00  2.426650030945E+00
   48     8 O    -2.438714439220E+00  2.336819198765E+00  2.391035423410E+00
   49     8 O     2.369920270458E+00  4.674788202242E+00  4.668510229877E+00
   50     8 O     4.637317917141E+00  6.990079401500E+00  4.664550999905E+00
   51     8 O     8.654194410800E-02  2.399711066011E+00  4.746370792384E+00
   52     8 O     4.682481107226E+00  4.691171834904E+00  6.922057119825E+00
   53     8 O     7.035159640335E+00  7.118048268912E+00  6.883105255525E+00
   54     8 O     2.252581519505E+00  2.341183016541E+00  6.936064174533E+00
 WARNING **** CRYSTA **** TESTGEOM  DIRECTIVE - GEOMETRY EDITING COMPLETE
 TTTTTTTTTTTTTTTTTTTTTTTTTTTTTT END         TELAPSE        0.01 TCPU        0.01
 EEEEEEEEEE TERMINATION  DATE 10 03 2023 TIME 10:30:24.5
Fri 10 Mar 2023 10:30:24 GMT
Contents of temporary directory:
total 8
-rw-r--r--  1 brunocamino  admin  4027 10 Mar 10:30 fort.34
SCF abnormal end - no wf written in fort.9
geometry input file fort.34 saved as /Users/brunocamino/Desktop/Imperial/cmsg_icl/solid-solutions/./data/crystal/testgeom_opt/CaMgO_testgeom_1953.gui
temporary directory /Users/brunocamino/crystal/tmp removed
