date Fri 10 Mar 2023 10:32:02 GMT
hostname MacBook-Pro-8
system Darwin MacBook-Pro-8 21.6.0 Darwin Kernel Version 21.6.0: Mon Aug 22 20:20:05 PDT 2022; root:xnu-8020.140.49~2/RELEASE_ARM64_T8101 arm64
user brunocamino
output data in /Users/brunocamino/Desktop/Imperial/cmsg_icl/solid-solutions/./data/crystal/testgeom_opt/CaMgO_testgeom_3180.out
crystal executable in /Users/brunocamino/crystal
input data in /Users/brunocamino/Desktop/Imperial/cmsg_icl/solid-solutions/./data/crystal/testgeom_opt/CaMgO_testgeom_3180.d12
temporary directory /Users/brunocamino/crystal/tmp
external geometry input from /Users/brunocamino/Desktop/Imperial/cmsg_icl/solid-solutions/./data/crystal/testgeom_opt/CaMgO_testgeom_3180.gui
external geometry input saved in /Users/brunocamino/Desktop/Imperial/cmsg_icl/solid-solutions/./data/crystal/testgeom_opt/CaMgO_testgeom_3180_inp.gui
Bulk 
EXTERNAL
EXTPRT
TESTGEOM
END

         
 *******************************************************************************
 *                                                                             *
 *                               CRYSTAL17                                     *
 *                      public : 1.0.1 - Feb 1st, 2017                         *
 *                       HTTP://WWW.CRYSTAL.UNITO.IT                           *
 *                                                                             *
 *                              MAIN AUTHORS                                   *
 *                                                                             *
 *  R. DOVESI(1,11), V.R. SAUNDERS(2), C. ROETTI(1,11), R. ORLANDO(1,11),      *
 *  C.M. ZICOVICH-WILSON(1,3), F. PASCALE(4), B. CIVALLERI(1,11),              *
 *  K. DOLL(5), N.M. HARRISON(2,6), I.J. BUSH(7), Ph. D'ARCO(8),               *
 *  M. LLUNELL(9), M. CAUSA'(10), Y. NOEL(8), L. MASCHIO(1,11), A. ERBA(1,11)  *
 *  M. RE'RAT(14), S. CASASSA(1,11)                                            *
 *                                                                             *
 *        CONTRIBUTIONS TO THE CODE HAVE ALSO BEEN GIVEN BY                    *
 *                                                                             *
 *  M. FERRABONE(1,11), M. DE LA PIERRE(1,11), M. FERRERO(1,11),               *
 *  J. BAIMA(1,11), E. ALBANESE(1,11), M.F. PEINTINGER(12), R. BAST(13),       *
 *  B. KIRTMAN(15), V. LACIVITA(1,11), R. DEMICHELIS(1,16)                     *
 *  G. BRANDEBURG(17), S. SALUSTRO(1,11), G. SANSONE(1,11)                     *
 *  M.T. RUGGIERO(18)                                                          *
 *                                                                             *
 * (1) THEORETICAL CHEMISTRY GROUP - UNIVERSITA' DI TORINO - TORINO (ITALY)    *

 * (2) COMPUTATIONAL SCIENCE & ENGINEERING DEPARTMENT - STFC DARESBURY (UK)    *
 * (3) UNIVERSIDAD AUTONOMA DEL ESTADO DE MORELOS - CUERNAVACA (MEXICO)        *
 * (4) UNIVERSITE' DE LORRAINE - NANCY (FRANCE)                                *
 * (5) UNIVERSITAET STUTTGART- STUTTGART (GERMANY)                             *
 * (6) IMPERIAL COLLEGE - LONDON (UK)                                          *
 * (7) OXFORD E-RESEARCH CENTRE - OXFORD (UK)                                  *
 * (8) UPMC - SORBONNE UNIVERSITES - PARIS (FRANCE)                            *
 * (9) UNIVERSIDAD DE BARCELONA - BARCELONA (SPAIN)                            *
 *(10) UNIVERSITA' DI NAPOLI "FEDERICO II" - NAPOLI (ITALY)                    *
 *(11) NIS - NANOSTRUCTURED INTERFACES AND SURFACES - TORINO (ITALY)           *
 *(12) MPI FUER CHEMISCHE ENERGIEKONVERSION - MUELHEIM AN DER RUHR (GERMANY)   *
 *(13) UNIVERSITY OF TROMSO - TROMSO (NORWAY)                                  *
 *(14) UNIVERSITE' DE PAU ET DES PAYS DE L'ADOUR - PAU (FRANCE)                *
 *(15) UNIVERSITY OF CALIFORNIA SANTA BARBARA - SANTA BARBARA (USA)            *
 *(16) CURTIN UNIVERSITY - PERTH (AUSTRALIA)                                   *
 *(17) UNIVERSITY COLLEGE LONDON - LONDON (UK)                                 *
 *(18) CAMBRIDGE UNIVERSITY - CAMBRIDGE (UK)                                   *
 *                                                                             *
 *******************************************************************************
 EEEEEEEEEE STARTING  DATE 10 03 2023 TIME 10:32:02.8
 Bulk                                                                            

 GEOMETRY INPUT FROM EXTERNAL FILE (FORTRAN UNIT 34)
 3D - CRYSTAL 

 *******************************************************************************
 LATTICE PARAMETERS  (ANGSTROMS AND DEGREES) - PRIMITIVE CELL
       A          B          C        ALPHA      BETA     GAMMA        VOLUME
    9.91562    9.92995    9.90513    60.00592  60.13750  59.89163    689.799902
 INFORMATION **** CHKGRP **** SPGR WITH NO INVERSION

 NUMBER OF IRREDUCIBLE ATOMS IN THE CELL:   54

 CARTESIAN COORDINATES (ANGSTROM) - IRREDUCIBLE ATOMS AND SYMMETRY RELATED

 AT.IRR.  AT  AT.N.          X                   Y                   Z
     1     1    20   -2.206549012300E-02  1.368197724700E-02 -7.677063960300E-02
     2     2    20    2.334359218991E+00  2.362878846464E+00 -5.118415778100E-02
     3     3    20   -2.339957076847E+00 -2.330933898494E+00 -4.881826596200E-02
     4     4    20    2.313706576127E+00 -3.540211352700E-02  2.364139174945E+00
     5     5    20    4.707581370681E+00  2.347151761330E+00  2.377856700355E+00
     6     6    20    1.097732600000E-05 -2.349483213660E+00  2.384390238062E+00
     7     7    20   -2.365397534651E+00 -1.044278025200E-02 -2.310565570268E+00
     8     8    12   -5.209584280900E-02  2.412559134159E+00 -2.298627352312E+00
     9     9    12   -4.739182749791E+00 -2.340414389318E+00 -2.324905373943E+00
    10    10    20   -3.280297443200E-02  2.331181969719E+00  2.394193488568E+00
    11    11    20    2.341385098573E+00  4.694741339657E+00  2.351943724823E+00
    12    12    20   -2.335079636941E+00  2.630116576800E-02  2.386283179784E+00
    13    13    20    2.295800660981E+00  2.319517124934E+00  4.726341941515E+00
    14    14    12    4.730476883586E+00  4.604280526716E+00  4.716527152873E+00
    15    15    12   -7.784674747000E-03 -2.716807543500E-02  4.740168314854E+00
    16    16    12   -2.283877157869E+00  2.323227390291E+00 -7.721197070400E-02
    17    17    20    5.253750950000E-03  4.681110518926E+00 -5.258675918000E-02
    18    18    12   -4.726961477236E+00  3.947925013000E-02 -7.166057708400E-02
    19    19    12   -3.274621467700E-02 -2.388689712438E+00 -2.335907231233E+00
    20    20    20    2.355046256416E+00  1.347952143500E-02 -2.345059685579E+00
    21    21    12   -2.226434051207E+00 -4.599465459030E+00 -2.296496144805E+00
    22    22    20    2.344824462511E+00 -2.396353608386E+00 -2.630696153200E-02
    23    23    20    4.730297194885E+00  7.605512465000E-03 -4.888680790800E-02
    24    24    12   -2.308897624200E-02 -4.687957093249E+00 -1.043612412650E-01
    25    25    20   -2.333126187222E+00 -2.376929174617E+00 -4.656816242440E+00
    26    26    20    2.162029533800E-02  2.735800764200E-02 -4.670168188145E+00
    27    27    20   -4.675360705849E+00 -4.667522491121E+00 -4.667155137919E+00
    28    28     8   -1.124508952300E-02  6.878048762000E-03 -2.342958147830E+00
    29    29     8    2.289778318549E+00  2.475577439211E+00 -2.324393620150E+00
    30    30     8   -2.277588736689E+00 -2.431262560233E+00 -2.347565403714E+00
    31    31     8    2.348710132086E+00  4.957752900000E-04 -7.558583027000E-03
    32    32     8    4.753918390255E+00  2.330467928602E+00 -8.047638346400E-02
    33    33     8    1.472654861000E-03 -2.432976375454E+00 -8.741846028000E-02
    34    34     8    4.671941033201E+00 -6.740027104000E-03  2.348007600081E+00
    35    35     8    7.004848594547E+00  2.337885024812E+00  2.369874621456E+00
    36    36     8    2.338466684572E+00 -2.336316866090E+00  2.363516042729E+00
    37    37     8   -1.018704974000E-01  2.335081535520E+00 -6.827055981900E-02
    38    38     8    2.328928034025E+00  4.770395947524E+00 -9.447276505400E-02
    39    39     8   -2.427551954103E+00  1.051723087080E-01 -1.142680758000E-02
    40    40     8    2.334453435791E+00  2.330243464434E+00  2.366503220729E+00
    41    41     8    4.673732226809E+00  4.665753853748E+00  2.380523667104E+00
    42    42     8    5.387979394000E-03  2.257578329000E-03  2.390128080833E+00
    43    43     8    4.777173133873E+00  2.422528824650E+00  4.763858066890E+00
    44    44     8    6.983103779545E+00  4.630522405030E+00  4.694519779655E+00
    45    45     8    2.215344409688E+00 -1.128248504800E-01  4.751251645377E+00
    46    46     8    4.261242936000E-03  4.663757916355E+00  2.423468853575E+00
    47    47     8    2.333333200740E+00  6.993912468026E+00  2.355786443291E+00
    48    48     8   -2.330015058537E+00  2.333288804662E+00  2.379334923217E+00
    49    49     8    2.339697518704E+00  4.651201495854E+00  4.705637088354E+00
    50    50     8    4.816405532534E+00  6.990189254919E+00  4.702409422120E+00
    51    51     8   -9.821734364700E-02  2.389519892787E+00  4.785260801738E+00
    52    52     8    4.678472047827E+00  4.550790664170E+00  6.918916784141E+00
    53    53     8    7.106584716080E+00  7.107664715098E+00  6.923574780727E+00
    54    54     8    2.346872196089E+00  2.204871061901E+00  7.016059953174E+00

 SYMMETRY CHANGED DURING OLD RUN :  INFORMATION ON SPACE GROUP LOST 
 NUMBER OF SYMMETRY OPERATORS         :    1
 *******************************************************************************
 LATTICE PARAMETERS (ANGSTROMS AND DEGREES) - BOHR = 0.5291772083 ANGSTROM
 PRIMITIVE CELL - CENTRING CODE 1/0 VOLUME=   689.799902 - DENSITY  3.291 g/cm^3
         A              B              C           ALPHA      BETA       GAMMA 
     9.91562037     9.92994650     9.90513397    60.005916  60.137497  59.891626
 *******************************************************************************
 ATOMS IN THE ASYMMETRIC UNIT   54 - ATOMS IN THE UNIT CELL:   54
     ATOM                 X/A                 Y/B                 Z/C    
 *******************************************************************************
      1 T  20 CA   -2.910036359584E-03 -8.010729192876E-03  4.865830175832E-03
      2 T  20 CA   -1.269917721354E-03 -5.927687159809E-03  3.389287112647E-01
      3 T  20 CA   -3.162083953703E-03 -3.865213421471E-03 -3.299314579294E-01
      4 T  20 CA    6.568030063588E-04  3.356775719699E-01 -5.808383876450E-03
      5 T  20 CA    1.165513271503E-03  3.372048846434E-01  3.341521909542E-01
      6 T  20 CA    1.739461764963E-03  3.373935710966E-01 -3.375755238034E-01
      7 T  20 CA    3.564490527211E-03 -3.322796407310E-01 -4.962822766882E-03
      8 T  12 MG    1.258224437523E-02 -3.395147438171E-01  3.322758594553E-01
      9 T  12 MG    5.336027959374E-03 -3.361743116084E-01 -3.396876810765E-01
     10 T  20 CA    3.392164000862E-01  1.411091183906E-03 -5.902771310102E-03
     11 T  20 CA    3.357905189629E-01 -1.089127038263E-03  3.352770216962E-01
     12 T  20 CA    3.381389017699E-01  1.281603534226E-03 -3.341956937651E-01
     13 T  20 CA    3.382313106424E-01  3.341805409962E-01 -6.677275903894E-03
     14 T  12 MG    3.271692993821E-01  3.439295398794E-01  3.308710497595E-01
     15 T  12 MG    3.358063945621E-01  3.384896348388E-01 -3.395986388968E-01
     16 T  12 MG    3.233650799889E-01 -3.343308199508E-01  8.896113351390E-03
     17 T  20 CA    3.303560850173E-01 -3.377361642944E-01  3.388538322765E-01
     18 T  12 MG    3.347959248808E-01 -3.450552235789E-01 -3.288754920320E-01
     19 T  12 MG   -3.345049872411E-01  2.166658768162E-03 -7.024969396061E-03
     20 T  20 CA   -3.337878712230E-01  2.326089227839E-04  3.355313273644E-01
     21 T  12 MG   -3.332356516229E-01  6.425424964221E-03 -3.242169454439E-01
     22 T  20 CA   -3.402999391924E-01  3.365392277514E-01 -2.420948537194E-03
     23 T  20 CA   -3.402446754865E-01  3.333569675154E-01  3.410529605484E-01
     24 T  12 MG   -3.407379940308E-01  3.257915656558E-01 -3.294526817810E-01
     25 T  20 CA   -3.347261291420E-01 -3.277973326886E-01 -5.031995887874E-03
     26 T  20 CA   -3.317999534856E-01 -3.325382448598E-01  3.356198846705E-01
     27 T  20 CA   -3.321061896563E-01 -3.319699826837E-01 -3.349775158566E-01
     28 T   8 O    -1.653733092200E-01 -1.679163422821E-01  1.663121556314E-01
     29 T   8 O    -1.517435010287E-01 -1.788200884086E-01 -4.945274591570E-01
     30 T   8 O    -1.782997627832E-01 -1.557293640519E-01 -1.691846727979E-01
     31 T   8 O    -1.679853192204E-01  1.669430571895E-01  1.679179872912E-01
     32 T   8 O    -1.782046294675E-01  1.668734043296E-01 -4.889128305312E-01
     33 T   8 O    -1.801628901545E-01  1.676753092466E-01 -1.676570147257E-01
     34 T   8 O    -1.666050027893E-01 -4.993216687060E-01  1.654120190116E-01
     35 T   8 O    -1.638791575964E-01 -4.988538805386E-01  4.977368976525E-01
     36 T   8 O    -1.655565082753E-01 -4.982467606896E-01 -1.685351550855E-01
     37 T   8 O     1.692524395422E-01 -1.789153852617E-01  1.645753304694E-01
     38 T   8 O     1.680582869690E-01 -1.813622073672E-01 -4.862215279748E-01
     39 T   8 O     1.798070085559E-01 -1.814642891480E-01 -1.646291055480E-01
     40 T   8 O     1.683740218853E-01  1.683476715624E-01  1.646657525994E-01
     41 T   8 O     1.694361223577E-01  1.693629101674E-01  4.973508188659E-01
     42 T   8 O     1.697991628420E-01  1.702006028096E-01 -1.694307283561E-01
     43 T   8 O     1.713173275851E-01 -4.935317269794E-01  1.748181142025E-01
     44 T   8 O     1.668473106095E-01 -4.988468931696E-01  4.948117375839E-01
     45 T   8 O     1.719464571346E-01 -4.960444564351E-01 -1.881146553029E-01
     46 T   8 O    -4.946784762253E-01 -1.604790150824E-01  1.614553869822E-01
     47 T   8 O    -4.990831662190E-01 -1.656196094985E-01  4.988406008021E-01
     48 T   8 O    -4.978792174736E-01 -1.636391271229E-01 -1.683712115226E-01
     49 T   8 O    -4.997698446212E-01  1.692870223584E-01  1.646583380222E-01
     50 T   8 O     4.905138962148E-01  1.786290507441E-01 -4.913895219428E-01
     51 T   8 O    -4.818617991935E-01  1.626228730303E-01 -1.764347153114E-01
     52 T   8 O     4.837230331324E-01 -4.993325315260E-01  1.667158600457E-01
     53 T   8 O     4.936012455709E-01  4.915407652232E-01 -4.777744538621E-01
     54 T   8 O     4.892772447907E-01 -4.911509910864E-01 -1.740719302998E-01

 T = ATOM BELONGING TO THE ASYMMETRIC UNIT
 *******************************************************************************
 * GEOMETRY EDITING - INPUT COORDINATES ARE GIVEN IN ANGSTROM         
 *******************************************************************************

 GCALCO - MAX INDICES DIRECT LATTICE VECTOR    14    14    14
 NO.OF VECTORS CREATED 6999 STARS 3500 RMAX   198.49377 BOHR

 GEOMETRY FOR WAVE FUNCTION - DIMENSIONALITY OF THE SYSTEM    3
 (NON PERIODIC DIRECTION: LATTICE PARAMETER FORMALLY SET TO 500)
 *******************************************************************************
 LATTICE PARAMETERS (ANGSTROMS AND DEGREES) - BOHR = 0.5291772083 ANGSTROM
 PRIMITIVE CELL - CENTRING CODE 1/0 VOLUME=   689.799902 - DENSITY  3.291 g/cm^3
         A              B              C           ALPHA      BETA       GAMMA 
     9.91562037     9.92994650     9.90513397    60.005916  60.137497  59.891626
 *******************************************************************************
 ATOMS IN THE ASYMMETRIC UNIT   54 - ATOMS IN THE UNIT CELL:   54
     ATOM                 X/A                 Y/B                 Z/C    
 *******************************************************************************
      1 T  20 CA   -2.910036359584E-03 -8.010729192876E-03  4.865830175832E-03
      2 T  20 CA   -1.269917721354E-03 -5.927687159809E-03  3.389287112647E-01
      3 T  20 CA   -3.162083953703E-03 -3.865213421471E-03 -3.299314579294E-01
      4 T  20 CA    6.568030063589E-04  3.356775719699E-01 -5.808383876450E-03
      5 T  20 CA    1.165513271503E-03  3.372048846434E-01  3.341521909542E-01
      6 T  20 CA    1.739461764963E-03  3.373935710966E-01 -3.375755238034E-01
      7 T  20 CA    3.564490527211E-03 -3.322796407310E-01 -4.962822766882E-03
      8 T  12 MG    1.258224437523E-02 -3.395147438171E-01  3.322758594553E-01
      9 T  12 MG    5.336027959374E-03 -3.361743116084E-01 -3.396876810765E-01
     10 T  20 CA    3.392164000862E-01  1.411091183906E-03 -5.902771310102E-03
     11 T  20 CA    3.357905189629E-01 -1.089127038263E-03  3.352770216962E-01
     12 T  20 CA    3.381389017699E-01  1.281603534226E-03 -3.341956937651E-01
     13 T  20 CA    3.382313106424E-01  3.341805409962E-01 -6.677275903894E-03
     14 T  12 MG    3.271692993821E-01  3.439295398794E-01  3.308710497595E-01
     15 T  12 MG    3.358063945621E-01  3.384896348388E-01 -3.395986388968E-01
     16 T  12 MG    3.233650799889E-01 -3.343308199508E-01  8.896113351389E-03
     17 T  20 CA    3.303560850173E-01 -3.377361642944E-01  3.388538322765E-01
     18 T  12 MG    3.347959248808E-01 -3.450552235789E-01 -3.288754920320E-01
     19 T  12 MG   -3.345049872411E-01  2.166658768162E-03 -7.024969396061E-03
     20 T  20 CA   -3.337878712230E-01  2.326089227840E-04  3.355313273644E-01
     21 T  12 MG   -3.332356516229E-01  6.425424964221E-03 -3.242169454439E-01
     22 T  20 CA   -3.402999391924E-01  3.365392277514E-01 -2.420948537194E-03
     23 T  20 CA   -3.402446754865E-01  3.333569675154E-01  3.410529605484E-01
     24 T  12 MG   -3.407379940308E-01  3.257915656558E-01 -3.294526817810E-01
     25 T  20 CA   -3.347261291420E-01 -3.277973326886E-01 -5.031995887874E-03
     26 T  20 CA   -3.317999534856E-01 -3.325382448598E-01  3.356198846705E-01
     27 T  20 CA   -3.321061896563E-01 -3.319699826837E-01 -3.349775158566E-01
     28 T   8 O    -1.653733092200E-01 -1.679163422821E-01  1.663121556314E-01
     29 T   8 O    -1.517435010287E-01 -1.788200884086E-01 -4.945274591570E-01
     30 T   8 O    -1.782997627832E-01 -1.557293640519E-01 -1.691846727979E-01
     31 T   8 O    -1.679853192204E-01  1.669430571895E-01  1.679179872912E-01
     32 T   8 O    -1.782046294675E-01  1.668734043296E-01 -4.889128305312E-01
     33 T   8 O    -1.801628901545E-01  1.676753092466E-01 -1.676570147257E-01
     34 T   8 O    -1.666050027892E-01 -4.993216687060E-01  1.654120190116E-01
     35 T   8 O    -1.638791575964E-01 -4.988538805386E-01  4.977368976525E-01
     36 T   8 O    -1.655565082753E-01 -4.982467606896E-01 -1.685351550855E-01
     37 T   8 O     1.692524395422E-01 -1.789153852617E-01  1.645753304694E-01
     38 T   8 O     1.680582869690E-01 -1.813622073672E-01 -4.862215279748E-01
     39 T   8 O     1.798070085559E-01 -1.814642891480E-01 -1.646291055480E-01
     40 T   8 O     1.683740218853E-01  1.683476715624E-01  1.646657525994E-01
     41 T   8 O     1.694361223577E-01  1.693629101674E-01  4.973508188659E-01
     42 T   8 O     1.697991628420E-01  1.702006028096E-01 -1.694307283561E-01
     43 T   8 O     1.713173275851E-01 -4.935317269794E-01  1.748181142025E-01
     44 T   8 O     1.668473106095E-01 -4.988468931696E-01  4.948117375839E-01
     45 T   8 O     1.719464571346E-01 -4.960444564351E-01 -1.881146553029E-01
     46 T   8 O    -4.946784762253E-01 -1.604790150824E-01  1.614553869822E-01
     47 T   8 O    -4.990831662190E-01 -1.656196094985E-01  4.988406008021E-01
     48 T   8 O    -4.978792174736E-01 -1.636391271229E-01 -1.683712115226E-01
     49 T   8 O    -4.997698446212E-01  1.692870223584E-01  1.646583380222E-01
     50 T   8 O     4.905138962148E-01  1.786290507441E-01 -4.913895219428E-01
     51 T   8 O    -4.818617991935E-01  1.626228730303E-01 -1.764347153114E-01
     52 T   8 O     4.837230331324E-01 -4.993325315260E-01  1.667158600457E-01
     53 T   8 O     4.936012455709E-01  4.915407652232E-01 -4.777744538621E-01
     54 T   8 O     4.892772447907E-01 -4.911509910864E-01 -1.740719302998E-01

 T = ATOM BELONGING TO THE ASYMMETRIC UNIT

 ****    1 SYMMOPS - TRANSLATORS IN FRACTIONAL UNITS
 **** MATRICES AND TRANSLATORS IN THE CRYSTALLOGRAPHIC REFERENCE FRAME
   V INV                    ROTATION MATRICES                   TRANSLATORS
   1   1  1.00  0.00  0.00  0.00  1.00  0.00  0.00  0.00  1.00  0.00  0.00  0.00

 DIRECT LATTICE VECTORS CARTESIAN COMPONENTS (ANGSTROM)
          X                    Y                    Z
  -0.389476613569E-02   0.699401898361E+01   0.702874174954E+01
   0.701395266255E+01   0.193754618748E-02   0.702910390654E+01
   0.701011956535E+01   0.699784964051E+01  -0.174640000390E-02


 CARTESIAN COORDINATES - PRIMITIVE CELL
 *******************************************************************************
 *      ATOM          X(ANGSTROM)         Y(ANGSTROM)         Z(ANGSTROM)
 *******************************************************************************
    1    20 CA   -2.206549012300E-02  1.368197724700E-02 -7.677063960300E-02
    2    20 CA    2.334359218991E+00  2.362878846464E+00 -5.118415778100E-02
    3    20 CA   -2.339957076847E+00 -2.330933898494E+00 -4.881826596200E-02
    4    20 CA    2.313706576127E+00 -3.540211352700E-02  2.364139174945E+00
    5    20 CA    4.707581370681E+00  2.347151761330E+00  2.377856700355E+00
    6    20 CA    1.097732600000E-05 -2.349483213660E+00  2.384390238062E+00
    7    20 CA   -2.365397534651E+00 -1.044278025200E-02 -2.310565570268E+00
    8    12 MG   -5.209584280900E-02  2.412559134159E+00 -2.298627352312E+00
    9    12 MG   -4.739182749791E+00 -2.340414389318E+00 -2.324905373943E+00
   10    20 CA   -3.280297443200E-02  2.331181969719E+00  2.394193488568E+00
   11    20 CA    2.341385098573E+00  4.694741339657E+00  2.351943724823E+00
   12    20 CA   -2.335079636941E+00  2.630116576800E-02  2.386283179784E+00
   13    20 CA    2.295800660981E+00  2.319517124934E+00  4.726341941515E+00
   14    12 MG    4.730476883586E+00  4.604280526716E+00  4.716527152873E+00
   15    12 MG   -7.784674747000E-03 -2.716807543500E-02  4.740168314854E+00
   16    12 MG   -2.283877157869E+00  2.323227390291E+00 -7.721197070400E-02
   17    20 CA    5.253750950000E-03  4.681110518926E+00 -5.258675918000E-02
   18    12 MG   -4.726961477236E+00  3.947925013000E-02 -7.166057708400E-02
   19    12 MG   -3.274621467700E-02 -2.388689712438E+00 -2.335907231233E+00
   20    20 CA    2.355046256416E+00  1.347952143500E-02 -2.345059685579E+00
   21    12 MG   -2.226434051207E+00 -4.599465459030E+00 -2.296496144805E+00
   22    20 CA    2.344824462511E+00 -2.396353608386E+00 -2.630696153200E-02
   23    20 CA    4.730297194885E+00  7.605512465001E-03 -4.888680790800E-02
   24    12 MG   -2.308897624200E-02 -4.687957093249E+00 -1.043612412650E-01
   25    20 CA   -2.333126187222E+00 -2.376929174617E+00 -4.656816242440E+00
   26    20 CA    2.162029533800E-02  2.735800764200E-02 -4.670168188145E+00
   27    20 CA   -4.675360705849E+00 -4.667522491121E+00 -4.667155137919E+00
   28     8 O    -1.124508952300E-02  6.878048762000E-03 -2.342958147830E+00
   29     8 O     2.289778318549E+00  2.475577439211E+00 -2.324393620150E+00
   30     8 O    -2.277588736689E+00 -2.431262560233E+00 -2.347565403714E+00
   31     8 O     2.348710132086E+00  4.957752900001E-04 -7.558583027000E-03
   32     8 O     4.753918390255E+00  2.330467928602E+00 -8.047638346400E-02
   33     8 O     1.472654861000E-03 -2.432976375454E+00 -8.741846028000E-02
   34     8 O     4.671941033201E+00 -6.740027103999E-03  2.348007600081E+00
   35     8 O     7.004848594547E+00  2.337885024812E+00  2.369874621456E+00
   36     8 O     2.338466684572E+00 -2.336316866090E+00  2.363516042729E+00
   37     8 O    -1.018704974000E-01  2.335081535520E+00 -6.827055981900E-02
   38     8 O     2.328928034025E+00  4.770395947524E+00 -9.447276505400E-02
   39     8 O    -2.427551954103E+00  1.051723087080E-01 -1.142680758000E-02
   40     8 O     2.334453435791E+00  2.330243464434E+00  2.366503220729E+00
   41     8 O     4.673732226809E+00  4.665753853748E+00  2.380523667104E+00
   42     8 O     5.387979394000E-03  2.257578329000E-03  2.390128080833E+00
   43     8 O     4.777173133873E+00  2.422528824650E+00  4.763858066890E+00
   44     8 O     6.983103779545E+00  4.630522405030E+00  4.694519779655E+00
   45     8 O     2.215344409688E+00 -1.128248504800E-01  4.751251645377E+00
   46     8 O     4.261242936000E-03  4.663757916355E+00  2.423468853575E+00
   47     8 O     2.333333200740E+00  6.993912468026E+00  2.355786443291E+00
   48     8 O    -2.330015058537E+00  2.333288804662E+00  2.379334923217E+00
   49     8 O     2.339697518704E+00  4.651201495854E+00  4.705637088354E+00
   50     8 O     4.816405532534E+00  6.990189254919E+00  4.702409422120E+00
   51     8 O    -9.821734364700E-02  2.389519892787E+00  4.785260801738E+00
   52     8 O     4.678472047827E+00  4.550790664170E+00  6.918916784141E+00
   53     8 O     7.106584716080E+00  7.107664715098E+00  6.923574780727E+00
   54     8 O     2.346872196089E+00  2.204871061901E+00  7.016059953174E+00
 WARNING **** CRYSTA **** TESTGEOM  DIRECTIVE - GEOMETRY EDITING COMPLETE
 TTTTTTTTTTTTTTTTTTTTTTTTTTTTTT END         TELAPSE        0.01 TCPU        0.01
 EEEEEEEEEE TERMINATION  DATE 10 03 2023 TIME 10:32:02.8
Fri 10 Mar 2023 10:32:02 GMT
Contents of temporary directory:
total 8
-rw-r--r--  1 brunocamino  admin  4027 10 Mar 10:32 fort.34
SCF abnormal end - no wf written in fort.9
geometry input file fort.34 saved as /Users/brunocamino/Desktop/Imperial/cmsg_icl/solid-solutions/./data/crystal/testgeom_opt/CaMgO_testgeom_3180.gui
temporary directory /Users/brunocamino/crystal/tmp removed
