date Fri 10 Mar 2023 10:32:48 GMT
hostname MacBook-Pro-8
system Darwin MacBook-Pro-8 21.6.0 Darwin Kernel Version 21.6.0: Mon Aug 22 20:20:05 PDT 2022; root:xnu-8020.140.49~2/RELEASE_ARM64_T8101 arm64
user brunocamino
output data in /Users/brunocamino/Desktop/Imperial/cmsg_icl/solid-solutions/./data/crystal/testgeom_opt/CaMgO_testgeom_3752.out
crystal executable in /Users/brunocamino/crystal
input data in /Users/brunocamino/Desktop/Imperial/cmsg_icl/solid-solutions/./data/crystal/testgeom_opt/CaMgO_testgeom_3752.d12
temporary directory /Users/brunocamino/crystal/tmp
external geometry input from /Users/brunocamino/Desktop/Imperial/cmsg_icl/solid-solutions/./data/crystal/testgeom_opt/CaMgO_testgeom_3752.gui
external geometry input saved in /Users/brunocamino/Desktop/Imperial/cmsg_icl/solid-solutions/./data/crystal/testgeom_opt/CaMgO_testgeom_3752_inp.gui
Bulk 
EXTERNAL
EXTPRT
TESTGEOM
END

         
 *******************************************************************************
 *                                                                             *
 *                               CRYSTAL17                                     *
 *                      public : 1.0.1 - Feb 1st, 2017                         *
 *                       HTTP://WWW.CRYSTAL.UNITO.IT                           *
 *                                                                             *
 *                              MAIN AUTHORS                                   *
 *                                                                             *
 *  R. DOVESI(1,11), V.R. SAUNDERS(2), C. ROETTI(1,11), R. ORLANDO(1,11),      *
 *  C.M. ZICOVICH-WILSON(1,3), F. PASCALE(4), B. CIVALLERI(1,11),              *
 *  K. DOLL(5), N.M. HARRISON(2,6), I.J. BUSH(7), Ph. D'ARCO(8),               *
 *  M. LLUNELL(9), M. CAUSA'(10), Y. NOEL(8), L. MASCHIO(1,11), A. ERBA(1,11)  *
 *  M. RE'RAT(14), S. CASASSA(1,11)                                            *
 *                                                                             *
 *        CONTRIBUTIONS TO THE CODE HAVE ALSO BEEN GIVEN BY                    *
 *                                                                             *
 *  M. FERRABONE(1,11), M. DE LA PIERRE(1,11), M. FERRERO(1,11),               *
 *  J. BAIMA(1,11), E. ALBANESE(1,11), M.F. PEINTINGER(12), R. BAST(13),       *
 *  B. KIRTMAN(15), V. LACIVITA(1,11), R. DEMICHELIS(1,16)                     *
 *  G. BRANDEBURG(17), S. SALUSTRO(1,11), G. SANSONE(1,11)                     *
 *  M.T. RUGGIERO(18)                                                          *
 *                                                                             *
 * (1) THEORETICAL CHEMISTRY GROUP - UNIVERSITA' DI TORINO - TORINO (ITALY)    *

 * (2) COMPUTATIONAL SCIENCE & ENGINEERING DEPARTMENT - STFC DARESBURY (UK)    *
 * (3) UNIVERSIDAD AUTONOMA DEL ESTADO DE MORELOS - CUERNAVACA (MEXICO)        *
 * (4) UNIVERSITE' DE LORRAINE - NANCY (FRANCE)                                *
 * (5) UNIVERSITAET STUTTGART- STUTTGART (GERMANY)                             *
 * (6) IMPERIAL COLLEGE - LONDON (UK)                                          *
 * (7) OXFORD E-RESEARCH CENTRE - OXFORD (UK)                                  *
 * (8) UPMC - SORBONNE UNIVERSITES - PARIS (FRANCE)                            *
 * (9) UNIVERSIDAD DE BARCELONA - BARCELONA (SPAIN)                            *
 *(10) UNIVERSITA' DI NAPOLI "FEDERICO II" - NAPOLI (ITALY)                    *
 *(11) NIS - NANOSTRUCTURED INTERFACES AND SURFACES - TORINO (ITALY)           *
 *(12) MPI FUER CHEMISCHE ENERGIEKONVERSION - MUELHEIM AN DER RUHR (GERMANY)   *
 *(13) UNIVERSITY OF TROMSO - TROMSO (NORWAY)                                  *
 *(14) UNIVERSITE' DE PAU ET DES PAYS DE L'ADOUR - PAU (FRANCE)                *
 *(15) UNIVERSITY OF CALIFORNIA SANTA BARBARA - SANTA BARBARA (USA)            *
 *(16) CURTIN UNIVERSITY - PERTH (AUSTRALIA)                                   *
 *(17) UNIVERSITY COLLEGE LONDON - LONDON (UK)                                 *
 *(18) CAMBRIDGE UNIVERSITY - CAMBRIDGE (UK)                                   *
 *                                                                             *
 *******************************************************************************
 EEEEEEEEEE STARTING  DATE 10 03 2023 TIME 10:32:48.0
 Bulk                                                                            

 GEOMETRY INPUT FROM EXTERNAL FILE (FORTRAN UNIT 34)
 3D - CRYSTAL 

 *******************************************************************************
 LATTICE PARAMETERS  (ANGSTROMS AND DEGREES) - PRIMITIVE CELL
       A          B          C        ALPHA      BETA     GAMMA        VOLUME
    9.94285    9.94166    9.90388    60.11043  59.72589  59.85657    690.622101
 INFORMATION **** CHKGRP **** SPGR WITH NO INVERSION

 NUMBER OF IRREDUCIBLE ATOMS IN THE CELL:   54

 CARTESIAN COORDINATES (ANGSTROM) - IRREDUCIBLE ATOMS AND SYMMETRY RELATED

 AT.IRR.  AT  AT.N.          X                   Y                   Z
     1     1    20   -5.810032819000E-03  2.233866893100E-02 -7.526392954900E-02
     2     2    20    2.303514404871E+00  2.381438727440E+00  1.406824796800E-02
     3     3    20   -2.376237915554E+00 -2.352470934648E+00 -3.528977806800E-02
     4     4    20    2.335288521300E+00 -2.212850817200E-02  2.370934719091E+00
     5     5    20    4.688723740656E+00  2.327521110959E+00  2.343034236147E+00
     6     6    20    1.118716894400E-02 -2.356075330471E+00  2.360759204548E+00
     7     7    20   -2.325683435887E+00 -1.002747481900E-02 -2.319801768331E+00
     8     8    12   -1.982453187700E-02  2.424893791181E+00 -2.258055726825E+00
     9     9    12   -4.760751657629E+00 -2.318185120203E+00 -2.313832068662E+00
    10    10    20    2.189759476700E-02  2.380815111495E+00  2.394197841590E+00
    11    11    12    2.280381674559E+00  4.704124829724E+00  2.429529504524E+00
    12    12    20   -2.326155951409E+00  8.302068180000E-03  2.319518605417E+00
    13    13    20    2.319761598626E+00  2.339507502199E+00  4.729447168438E+00
    14    14    20    4.709456513569E+00  4.677825943584E+00  4.714255879760E+00
    15    15    12   -3.739977897000E-03 -7.006333533400E-02  4.765510636211E+00
    16    16    12   -2.206912230611E+00  2.394013088558E+00 -1.561761863000E-02
    17    17    12   -1.162545101200E-02  4.615677087378E+00 -1.003378305040E-01
    18    18    20   -4.736794358405E+00 -1.568033387200E-02 -1.532687494700E-02
    19    19    12    5.137927623900E-02 -2.401267567966E+00 -2.315934243131E+00
    20    20    20    2.318145247540E+00 -1.366822134900E-02 -2.362745474533E+00
    21    21    20   -2.303776562125E+00 -4.674525649616E+00 -2.315735708740E+00
    22    22    20    2.361490911761E+00 -2.367431452245E+00 -1.198847316800E-02
    23    23    12    4.756809407530E+00  5.616070311200E-02 -1.787402240200E-02
    24    24    12   -5.404023872200E-02 -4.653388290923E+00 -7.027589507800E-02
    25    25    20   -2.300229442314E+00 -2.343124399470E+00 -4.735540553510E+00
    26    26    20   -1.372183149700E-02 -2.108414464200E-02 -4.724462878927E+00
    27    27    20   -4.695649251858E+00 -4.661985614699E+00 -4.687413988511E+00
    28    28     8    5.641070300000E-05 -2.097686427400E-02 -2.352065454464E+00
    29    29     8    2.205806925053E+00  2.436343626503E+00 -2.306808822886E+00
    30    30     8   -2.356300106691E+00 -2.335760290406E+00 -2.373262911000E+00
    31    31     8    2.399379301563E+00  5.541281813000E-03 -4.352542026000E-03
    32    32     8    4.763143019141E+00  2.258975768904E+00  1.768734538400E-02
    33    33     8   -6.734938580000E-03 -2.420315152771E+00 -8.527872544700E-02
    34    34     8    4.660079685404E+00 -9.568197980000E-03  2.255653488784E+00
    35    35     8    6.992681267358E+00  2.340087510583E+00  2.357448079788E+00
    36    36     8    2.333133439414E+00 -2.343986252419E+00  2.366881080838E+00
    37    37     8   -8.492821058400E-02  2.435450655701E+00 -6.125276313300E-02
    38    38     8    2.187193287863E+00  4.679058682307E+00 -5.044195311700E-02
    39    39     8   -2.336800794023E+00  8.177801160300E-02 -1.057232526100E-02
    40    40     8    2.343143737785E+00  2.422812542887E+00  2.374721057071E+00
    41    41     8    4.562587289255E+00  4.681168079433E+00  2.348395450533E+00
    42    42     8    4.975143018000E-03  1.398215890000E-03  2.384226999083E+00
    43    43     8    4.801400283793E+00  2.333813418004E+00  4.780413025890E+00
    44    44     8    7.089846983667E+00  4.655068833184E+00  4.776833973338E+00
    45    45     8    2.217770395968E+00 -1.101933758940E-01  4.691383114139E+00
    46    46     8    1.348627381420E-01  4.687386558726E+00  2.399357585524E+00
    47    47     8    2.331864368631E+00  6.928662434474E+00  2.351645347147E+00
    48    48     8   -2.315601328440E+00  2.339677089418E+00  2.307718936216E+00
    49    49     8    2.257292513922E+00  4.677566647919E+00  4.621212639301E+00
    50    50     8    4.783205206109E+00  7.020113794187E+00  4.793658934198E+00
    51    51     8    2.223505967200E-02  2.414884858602E+00  4.812223453439E+00
    52    52     8    4.818087783639E+00  4.614618067599E+00  7.027027373523E+00
    53    53     8    6.886633153535E+00  7.037727082599E+00  6.937753053594E+00
    54    54     8    2.337450987178E+00  2.334821032356E+00  7.044796051235E+00

 SYMMETRY CHANGED DURING OLD RUN :  INFORMATION ON SPACE GROUP LOST 
 NUMBER OF SYMMETRY OPERATORS         :    1
 *******************************************************************************
 LATTICE PARAMETERS (ANGSTROMS AND DEGREES) - BOHR = 0.5291772083 ANGSTROM
 PRIMITIVE CELL - CENTRING CODE 1/0 VOLUME=   690.622101 - DENSITY  3.287 g/cm^3
         A              B              C           ALPHA      BETA       GAMMA 
     9.94284903     9.94166497     9.90388147    60.110434  59.725894  59.856573
 *******************************************************************************
 ATOMS IN THE ASYMMETRIC UNIT   54 - ATOMS IN THE UNIT CELL:   54
     ATOM                 X/A                 Y/B                 Z/C    
 *******************************************************************************
      1 T  20 CA   -3.363616314050E-03 -7.341722137397E-03  6.542368660896E-03
      2 T  20 CA    5.174310658770E-03 -4.258025886178E-03  3.340177932485E-01
      3 T  20 CA    5.841489476670E-04 -4.487707790288E-03 -3.356681382925E-01
      4 T  20 CA    1.352572736250E-04  3.361226211955E-01 -2.920563967969E-03
      5 T  20 CA   -3.521866237940E-03  3.347038068787E-01  3.354167369279E-01
      6 T  20 CA    9.028001681555E-05  3.358131888699E-01 -3.353155828714E-01
      7 T  20 CA    5.373600485823E-04 -3.295243524154E-01 -2.326028827413E-03
      8 T  12 MG    1.274600700897E-02 -3.340361517936E-01  3.322647443849E-01
      9 T  12 MG    1.143128666325E-02 -3.384268324900E-01 -3.420119957168E-01
     10 T  20 CA    3.384347057248E-01  2.109422582821E-03  1.883021586266E-04
     11 T  12 MG    3.442212029585E-01  2.857310378480E-04  3.253159650998E-01
     12 T  20 CA    3.327645031650E-01 -1.739783956540E-03 -3.320703762999E-01
     13 T  20 CA    3.373440016852E-01  3.343984000319E-01 -4.240499948503E-03
     14 T  20 CA    3.311887448879E-01  3.372698598731E-01  3.349892925620E-01
     15 T  12 MG    3.351781172875E-01  3.427895692077E-01 -3.452736527182E-01
     16 T  12 MG    3.272591073338E-01 -3.285515712203E-01  1.289927257856E-02
     17 T  12 MG    3.217875368732E-01 -3.361657226997E-01  3.348170606220E-01
     18 T  20 CA    3.373264867322E-01 -3.373906720752E-01 -3.404212923311E-01
     19 T  12 MG   -3.395590959484E-01  1.011687153462E-02 -1.962106585961E-03
     20 T  20 CA   -3.356548239317E-01 -1.515851772567E-03  3.341970326020E-01
     21 T  20 CA   -3.323240458050E-01  4.015714631307E-03 -3.330098114900E-01
     22 T  20 CA   -3.384186998679E-01  3.357141120524E-01  2.070652361434E-03
     23 T  12 MG   -3.382515643665E-01  3.335825358326E-01  3.471094575917E-01
     24 T  12 MG   -3.319300361067E-01  3.220661183242E-01 -3.300465799233E-01
     25 T  20 CA   -3.394357800756E-01 -3.331821354816E-01  5.821484777173E-03
     26 T  20 CA   -3.374781234646E-01 -3.346399630706E-01  3.346031670754E-01
     27 T  20 CA   -3.291379798070E-01 -3.355085101702E-01 -3.347848892408E-01
     28 T   8 O    -1.692515972911E-01 -1.653640281741E-01  1.663307053859E-01
     29 T   8 O    -1.494509625282E-01 -1.797694876725E-01  4.964980668095E-01
     30 T   8 O    -1.664083847522E-01 -1.701157280832E-01 -1.662320022798E-01
     31 T   8 O    -1.719044823344E-01  1.702133387580E-01  1.731308346607E-01
     32 T   8 O    -1.795796182699E-01  1.799149481487E-01 -4.982004098932E-01
     33 T   8 O    -1.776504098596E-01  1.655783300345E-01 -1.666509232066E-01
     34 T   8 O    -1.738355459736E-01  4.926541873748E-01  1.732644492676E-01
     35 T   8 O    -1.667486344582E-01  4.989516865364E-01 -4.991487043909E-01
     36 T   8 O    -1.650512637190E-01 -4.992118352318E-01 -1.680306439719E-01
     37 T   8 O     1.748456988106E-01 -1.835793013428E-01  1.715959419743E-01
     38 T   8 O     1.722400775234E-01 -1.805035407596E-01  4.937808918436E-01
     39 T   8 O     1.725615474032E-01 -1.730236996587E-01 -1.613544536968E-01
     40 T   8 O     1.736436427696E-01  1.630917371299E-01  1.713779384568E-01
     41 T   8 O     1.732136488734E-01  1.587318492849E-01  4.934765527692E-01
     42 T   8 O     1.697930224459E-01  1.693962724496E-01 -1.696572402027E-01
     43 T   8 O     1.626899475666E-01 -4.848053092339E-01  1.700551465908E-01
     44 T   8 O     1.634074567940E-01 -4.871089733101E-01  4.999660763132E-01
     45 T   8 O     1.678001535617E-01  4.986303973091E-01 -1.831969119738E-01
     46 T   8 O     4.946705880185E-01 -1.534972606481E-01  1.720946622473E-01
     47 T   8 O     4.931097492391E-01 -1.597584407523E-01  4.928909290532E-01
     48 T   8 O     4.968947842575E-01 -1.676084315472E-01 -1.645482154242E-01
     49 T   8 O    -4.996942402998E-01  1.560114525229E-01  1.653902961675E-01
     50 T   8 O     4.980698669682E-01  1.815968214719E-01 -4.986778953804E-01
     51 T   8 O    -4.867067306843E-01  1.712498076340E-01 -1.698885384725E-01
     52 T   8 O     4.838626581061E-01 -4.864251404402E-01  1.732814490039E-01
     53 T   8 O    -4.985289307722E-01  4.822847023755E-01 -4.992471571569E-01
     54 T   8 O    -4.991194667363E-01 -4.997533032688E-01 -1.685026569308E-01

 T = ATOM BELONGING TO THE ASYMMETRIC UNIT
 *******************************************************************************
 * GEOMETRY EDITING - INPUT COORDINATES ARE GIVEN IN ANGSTROM         
 *******************************************************************************

 GCALCO - MAX INDICES DIRECT LATTICE VECTOR    15    14    15
 NO.OF VECTORS CREATED 6999 STARS 3500 RMAX   198.52495 BOHR

 GEOMETRY FOR WAVE FUNCTION - DIMENSIONALITY OF THE SYSTEM    3
 (NON PERIODIC DIRECTION: LATTICE PARAMETER FORMALLY SET TO 500)
 *******************************************************************************
 LATTICE PARAMETERS (ANGSTROMS AND DEGREES) - BOHR = 0.5291772083 ANGSTROM
 PRIMITIVE CELL - CENTRING CODE 1/0 VOLUME=   690.622101 - DENSITY  3.287 g/cm^3
         A              B              C           ALPHA      BETA       GAMMA 
     9.94284903     9.94166497     9.90388147    60.110434  59.725894  59.856573
 *******************************************************************************
 ATOMS IN THE ASYMMETRIC UNIT   54 - ATOMS IN THE UNIT CELL:   54
     ATOM                 X/A                 Y/B                 Z/C    
 *******************************************************************************
      1 T  20 CA   -3.363616314050E-03 -7.341722137397E-03  6.542368660896E-03
      2 T  20 CA    5.174310658770E-03 -4.258025886178E-03  3.340177932485E-01
      3 T  20 CA    5.841489476670E-04 -4.487707790288E-03 -3.356681382925E-01
      4 T  20 CA    1.352572736250E-04  3.361226211955E-01 -2.920563967969E-03
      5 T  20 CA   -3.521866237940E-03  3.347038068787E-01  3.354167369279E-01
      6 T  20 CA    9.028001681555E-05  3.358131888699E-01 -3.353155828714E-01
      7 T  20 CA    5.373600485822E-04 -3.295243524154E-01 -2.326028827413E-03
      8 T  12 MG    1.274600700897E-02 -3.340361517936E-01  3.322647443849E-01
      9 T  12 MG    1.143128666325E-02 -3.384268324900E-01 -3.420119957168E-01
     10 T  20 CA    3.384347057248E-01  2.109422582821E-03  1.883021586266E-04
     11 T  12 MG    3.442212029585E-01  2.857310378480E-04  3.253159650998E-01
     12 T  20 CA    3.327645031650E-01 -1.739783956540E-03 -3.320703762999E-01
     13 T  20 CA    3.373440016852E-01  3.343984000319E-01 -4.240499948503E-03
     14 T  20 CA    3.311887448879E-01  3.372698598731E-01  3.349892925620E-01
     15 T  12 MG    3.351781172875E-01  3.427895692077E-01 -3.452736527182E-01
     16 T  12 MG    3.272591073338E-01 -3.285515712203E-01  1.289927257856E-02
     17 T  12 MG    3.217875368732E-01 -3.361657226997E-01  3.348170606220E-01
     18 T  20 CA    3.373264867322E-01 -3.373906720752E-01 -3.404212923311E-01
     19 T  12 MG   -3.395590959484E-01  1.011687153462E-02 -1.962106585961E-03
     20 T  20 CA   -3.356548239317E-01 -1.515851772567E-03  3.341970326020E-01
     21 T  20 CA   -3.323240458050E-01  4.015714631307E-03 -3.330098114900E-01
     22 T  20 CA   -3.384186998679E-01  3.357141120524E-01  2.070652361434E-03
     23 T  12 MG   -3.382515643665E-01  3.335825358326E-01  3.471094575917E-01
     24 T  12 MG   -3.319300361067E-01  3.220661183242E-01 -3.300465799233E-01
     25 T  20 CA   -3.394357800756E-01 -3.331821354816E-01  5.821484777173E-03
     26 T  20 CA   -3.374781234646E-01 -3.346399630706E-01  3.346031670754E-01
     27 T  20 CA   -3.291379798070E-01 -3.355085101702E-01 -3.347848892408E-01
     28 T   8 O    -1.692515972911E-01 -1.653640281741E-01  1.663307053859E-01
     29 T   8 O    -1.494509625282E-01 -1.797694876725E-01  4.964980668095E-01
     30 T   8 O    -1.664083847522E-01 -1.701157280832E-01 -1.662320022798E-01
     31 T   8 O    -1.719044823344E-01  1.702133387580E-01  1.731308346607E-01
     32 T   8 O    -1.795796182699E-01  1.799149481487E-01 -4.982004098932E-01
     33 T   8 O    -1.776504098596E-01  1.655783300345E-01 -1.666509232066E-01
     34 T   8 O    -1.738355459736E-01  4.926541873748E-01  1.732644492676E-01
     35 T   8 O    -1.667486344582E-01  4.989516865364E-01 -4.991487043909E-01
     36 T   8 O    -1.650512637190E-01 -4.992118352318E-01 -1.680306439719E-01
     37 T   8 O     1.748456988106E-01 -1.835793013428E-01  1.715959419743E-01
     38 T   8 O     1.722400775234E-01 -1.805035407596E-01  4.937808918436E-01
     39 T   8 O     1.725615474032E-01 -1.730236996587E-01 -1.613544536968E-01
     40 T   8 O     1.736436427696E-01  1.630917371299E-01  1.713779384568E-01
     41 T   8 O     1.732136488734E-01  1.587318492849E-01  4.934765527692E-01
     42 T   8 O     1.697930224459E-01  1.693962724496E-01 -1.696572402027E-01
     43 T   8 O     1.626899475666E-01 -4.848053092339E-01  1.700551465908E-01
     44 T   8 O     1.634074567940E-01 -4.871089733101E-01  4.999660763132E-01
     45 T   8 O     1.678001535617E-01  4.986303973091E-01 -1.831969119738E-01
     46 T   8 O     4.946705880185E-01 -1.534972606481E-01  1.720946622473E-01
     47 T   8 O     4.931097492391E-01 -1.597584407523E-01  4.928909290532E-01
     48 T   8 O     4.968947842575E-01 -1.676084315472E-01 -1.645482154242E-01
     49 T   8 O    -4.996942402998E-01  1.560114525229E-01  1.653902961675E-01
     50 T   8 O     4.980698669682E-01  1.815968214719E-01 -4.986778953804E-01
     51 T   8 O    -4.867067306843E-01  1.712498076340E-01 -1.698885384725E-01
     52 T   8 O     4.838626581061E-01 -4.864251404402E-01  1.732814490039E-01
     53 T   8 O    -4.985289307722E-01  4.822847023755E-01 -4.992471571569E-01
     54 T   8 O    -4.991194667363E-01 -4.997533032688E-01 -1.685026569308E-01

 T = ATOM BELONGING TO THE ASYMMETRIC UNIT

 ****    1 SYMMOPS - TRANSLATORS IN FRACTIONAL UNITS
 **** MATRICES AND TRANSLATORS IN THE CRYSTALLOGRAPHIC REFERENCE FRAME
   V INV                    ROTATION MATRICES                   TRANSLATORS
   1   1  1.00  0.00  0.00  0.00  1.00  0.00  0.00  0.00  1.00  0.00  0.00  0.00

 DIRECT LATTICE VECTORS CARTESIAN COMPONENTS (ANGSTROM)
          X                    Y                    Z
   0.171333000479E-01   0.703092569061E+01   0.703036537168E+01
   0.700841757364E+01  -0.766149139809E-02   0.705115073774E+01
   0.698545952481E+01   0.702066164818E+01   0.230973798847E-01


 CARTESIAN COORDINATES - PRIMITIVE CELL
 *******************************************************************************
 *      ATOM          X(ANGSTROM)         Y(ANGSTROM)         Z(ANGSTROM)
 *******************************************************************************
    1    20 CA   -5.810032819000E-03  2.233866893100E-02 -7.526392954900E-02
    2    20 CA    2.303514404871E+00  2.381438727440E+00  1.406824796800E-02
    3    20 CA   -2.376237915554E+00 -2.352470934648E+00 -3.528977806800E-02
    4    20 CA    2.335288521300E+00 -2.212850817200E-02  2.370934719091E+00
    5    20 CA    4.688723740656E+00  2.327521110959E+00  2.343034236147E+00
    6    20 CA    1.118716894400E-02 -2.356075330471E+00  2.360759204548E+00
    7    20 CA   -2.325683435887E+00 -1.002747481900E-02 -2.319801768331E+00
    8    12 MG   -1.982453187700E-02  2.424893791181E+00 -2.258055726825E+00
    9    12 MG   -4.760751657629E+00 -2.318185120203E+00 -2.313832068662E+00
   10    20 CA    2.189759476700E-02  2.380815111495E+00  2.394197841590E+00
   11    12 MG    2.280381674559E+00  4.704124829724E+00  2.429529504524E+00
   12    20 CA   -2.326155951409E+00  8.302068180000E-03  2.319518605417E+00
   13    20 CA    2.319761598626E+00  2.339507502199E+00  4.729447168438E+00
   14    20 CA    4.709456513569E+00  4.677825943584E+00  4.714255879760E+00
   15    12 MG   -3.739977897000E-03 -7.006333533400E-02  4.765510636211E+00
   16    12 MG   -2.206912230611E+00  2.394013088558E+00 -1.561761863000E-02
   17    12 MG   -1.162545101200E-02  4.615677087378E+00 -1.003378305040E-01
   18    20 CA   -4.736794358405E+00 -1.568033387200E-02 -1.532687494700E-02
   19    12 MG    5.137927623900E-02 -2.401267567966E+00 -2.315934243131E+00
   20    20 CA    2.318145247540E+00 -1.366822134900E-02 -2.362745474533E+00
   21    20 CA   -2.303776562125E+00 -4.674525649616E+00 -2.315735708740E+00
   22    20 CA    2.361490911761E+00 -2.367431452245E+00 -1.198847316800E-02
   23    12 MG    4.756809407530E+00  5.616070311200E-02 -1.787402240200E-02
   24    12 MG   -5.404023872200E-02 -4.653388290923E+00 -7.027589507800E-02
   25    20 CA   -2.300229442314E+00 -2.343124399470E+00 -4.735540553510E+00
   26    20 CA   -1.372183149700E-02 -2.108414464200E-02 -4.724462878927E+00
   27    20 CA   -4.695649251858E+00 -4.661985614699E+00 -4.687413988511E+00
   28     8 O     5.641070300022E-05 -2.097686427400E-02 -2.352065454464E+00
   29     8 O     2.205806925053E+00  2.436343626503E+00 -2.306808822886E+00
   30     8 O    -2.356300106691E+00 -2.335760290406E+00 -2.373262911000E+00
   31     8 O     2.399379301563E+00  5.541281813000E-03 -4.352542026000E-03
   32     8 O     4.763143019141E+00  2.258975768904E+00  1.768734538400E-02
   33     8 O    -6.734938580000E-03 -2.420315152771E+00 -8.527872544700E-02
   34     8 O     4.660079685404E+00 -9.568197980000E-03  2.255653488784E+00
   35     8 O     6.992681267358E+00  2.340087510583E+00  2.357448079788E+00
   36     8 O     2.333133439414E+00 -2.343986252419E+00  2.366881080838E+00
   37     8 O    -8.492821058400E-02  2.435450655701E+00 -6.125276313300E-02
   38     8 O     2.187193287863E+00  4.679058682307E+00 -5.044195311700E-02
   39     8 O    -2.336800794023E+00  8.177801160300E-02 -1.057232526100E-02
   40     8 O     2.343143737785E+00  2.422812542887E+00  2.374721057071E+00
   41     8 O     4.562587289255E+00  4.681168079433E+00  2.348395450533E+00
   42     8 O     4.975143018000E-03  1.398215890000E-03  2.384226999083E+00
   43     8 O     4.801400283793E+00  2.333813418004E+00  4.780413025890E+00
   44     8 O     7.089846983667E+00  4.655068833184E+00  4.776833973338E+00
   45     8 O     2.217770395968E+00 -1.101933758940E-01  4.691383114139E+00
   46     8 O     1.348627381420E-01  4.687386558726E+00  2.399357585524E+00
   47     8 O     2.331864368631E+00  6.928662434474E+00  2.351645347147E+00
   48     8 O    -2.315601328440E+00  2.339677089418E+00  2.307718936216E+00
   49     8 O     2.257292513922E+00  4.677566647919E+00  4.621212639301E+00
   50     8 O     4.783205206109E+00  7.020113794187E+00  4.793658934198E+00
   51     8 O     2.223505967200E-02  2.414884858602E+00  4.812223453439E+00
   52     8 O     4.818087783639E+00  4.614618067599E+00  7.027027373523E+00
   53     8 O     6.886633153535E+00  7.037727082599E+00  6.937753053594E+00
   54     8 O     2.337450987178E+00  2.334821032356E+00  7.044796051235E+00
 WARNING **** CRYSTA **** TESTGEOM  DIRECTIVE - GEOMETRY EDITING COMPLETE
 TTTTTTTTTTTTTTTTTTTTTTTTTTTTTT END         TELAPSE        0.01 TCPU        0.01
 EEEEEEEEEE TERMINATION  DATE 10 03 2023 TIME 10:32:48.0
Fri 10 Mar 2023 10:32:48 GMT
Contents of temporary directory:
total 8
-rw-r--r--  1 brunocamino  admin  4027 10 Mar 10:32 fort.34
SCF abnormal end - no wf written in fort.9
geometry input file fort.34 saved as /Users/brunocamino/Desktop/Imperial/cmsg_icl/solid-solutions/./data/crystal/testgeom_opt/CaMgO_testgeom_3752.gui
temporary directory /Users/brunocamino/crystal/tmp removed
