date Fri 10 Mar 2023 10:31:56 GMT
hostname MacBook-Pro-8
system Darwin MacBook-Pro-8 21.6.0 Darwin Kernel Version 21.6.0: Mon Aug 22 20:20:05 PDT 2022; root:xnu-8020.140.49~2/RELEASE_ARM64_T8101 arm64
user brunocamino
output data in /Users/brunocamino/Desktop/Imperial/cmsg_icl/solid-solutions/./data/crystal/testgeom_opt/CaMgO_testgeom_3105.out
crystal executable in /Users/brunocamino/crystal
input data in /Users/brunocamino/Desktop/Imperial/cmsg_icl/solid-solutions/./data/crystal/testgeom_opt/CaMgO_testgeom_3105.d12
temporary directory /Users/brunocamino/crystal/tmp
external geometry input from /Users/brunocamino/Desktop/Imperial/cmsg_icl/solid-solutions/./data/crystal/testgeom_opt/CaMgO_testgeom_3105.gui
external geometry input saved in /Users/brunocamino/Desktop/Imperial/cmsg_icl/solid-solutions/./data/crystal/testgeom_opt/CaMgO_testgeom_3105_inp.gui
Bulk 
EXTERNAL
EXTPRT
TESTGEOM
END

         
 *******************************************************************************
 *                                                                             *
 *                               CRYSTAL17                                     *
 *                      public : 1.0.1 - Feb 1st, 2017                         *
 *                       HTTP://WWW.CRYSTAL.UNITO.IT                           *
 *                                                                             *
 *                              MAIN AUTHORS                                   *
 *                                                                             *
 *  R. DOVESI(1,11), V.R. SAUNDERS(2), C. ROETTI(1,11), R. ORLANDO(1,11),      *
 *  C.M. ZICOVICH-WILSON(1,3), F. PASCALE(4), B. CIVALLERI(1,11),              *
 *  K. DOLL(5), N.M. HARRISON(2,6), I.J. BUSH(7), Ph. D'ARCO(8),               *
 *  M. LLUNELL(9), M. CAUSA'(10), Y. NOEL(8), L. MASCHIO(1,11), A. ERBA(1,11)  *
 *  M. RE'RAT(14), S. CASASSA(1,11)                                            *
 *                                                                             *
 *        CONTRIBUTIONS TO THE CODE HAVE ALSO BEEN GIVEN BY                    *
 *                                                                             *
 *  M. FERRABONE(1,11), M. DE LA PIERRE(1,11), M. FERRERO(1,11),               *
 *  J. BAIMA(1,11), E. ALBANESE(1,11), M.F. PEINTINGER(12), R. BAST(13),       *
 *  B. KIRTMAN(15), V. LACIVITA(1,11), R. DEMICHELIS(1,16)                     *
 *  G. BRANDEBURG(17), S. SALUSTRO(1,11), G. SANSONE(1,11)                     *
 *  M.T. RUGGIERO(18)                                                          *
 *                                                                             *
 * (1) THEORETICAL CHEMISTRY GROUP - UNIVERSITA' DI TORINO - TORINO (ITALY)    *

 * (2) COMPUTATIONAL SCIENCE & ENGINEERING DEPARTMENT - STFC DARESBURY (UK)    *
 * (3) UNIVERSIDAD AUTONOMA DEL ESTADO DE MORELOS - CUERNAVACA (MEXICO)        *
 * (4) UNIVERSITE' DE LORRAINE - NANCY (FRANCE)                                *
 * (5) UNIVERSITAET STUTTGART- STUTTGART (GERMANY)                             *
 * (6) IMPERIAL COLLEGE - LONDON (UK)                                          *
 * (7) OXFORD E-RESEARCH CENTRE - OXFORD (UK)                                  *
 * (8) UPMC - SORBONNE UNIVERSITES - PARIS (FRANCE)                            *
 * (9) UNIVERSIDAD DE BARCELONA - BARCELONA (SPAIN)                            *
 *(10) UNIVERSITA' DI NAPOLI "FEDERICO II" - NAPOLI (ITALY)                    *
 *(11) NIS - NANOSTRUCTURED INTERFACES AND SURFACES - TORINO (ITALY)           *
 *(12) MPI FUER CHEMISCHE ENERGIEKONVERSION - MUELHEIM AN DER RUHR (GERMANY)   *
 *(13) UNIVERSITY OF TROMSO - TROMSO (NORWAY)                                  *
 *(14) UNIVERSITE' DE PAU ET DES PAYS DE L'ADOUR - PAU (FRANCE)                *
 *(15) UNIVERSITY OF CALIFORNIA SANTA BARBARA - SANTA BARBARA (USA)            *
 *(16) CURTIN UNIVERSITY - PERTH (AUSTRALIA)                                   *
 *(17) UNIVERSITY COLLEGE LONDON - LONDON (UK)                                 *
 *(18) CAMBRIDGE UNIVERSITY - CAMBRIDGE (UK)                                   *
 *                                                                             *
 *******************************************************************************
 EEEEEEEEEE STARTING  DATE 10 03 2023 TIME 10:31:56.8
 Bulk                                                                            

 GEOMETRY INPUT FROM EXTERNAL FILE (FORTRAN UNIT 34)
 3D - CRYSTAL 

 *******************************************************************************
 LATTICE PARAMETERS  (ANGSTROMS AND DEGREES) - PRIMITIVE CELL
       A          B          C        ALPHA      BETA     GAMMA        VOLUME
    9.92663    9.91426    9.89281    60.04994  59.97546  59.82545    687.658995
 INFORMATION **** CHKGRP **** SPGR WITH NO INVERSION

 NUMBER OF IRREDUCIBLE ATOMS IN THE CELL:   54

 CARTESIAN COORDINATES (ANGSTROM) - IRREDUCIBLE ATOMS AND SYMMETRY RELATED

 AT.IRR.  AT  AT.N.          X                   Y                   Z
     1     1    20    8.582662137000E-03 -1.234599979500E-02 -6.517599481100E-02
     2     2    20    2.301617954153E+00  2.323916642897E+00 -6.824722667300E-02
     3     3    20   -2.308772894900E+00 -2.351966727018E+00 -4.219161144500E-02
     4     4    20    2.334055530268E+00 -5.199019285900E-02  2.347572131975E+00
     5     5    20    4.699221797513E+00  2.328817506213E+00  2.349757072801E+00
     6     6    20    5.378809628400E-02 -2.346232221301E+00  2.363587393619E+00
     7     7    20   -2.302926594493E+00 -2.411858354600E-02 -2.343498350696E+00
     8     8    12    2.817605549700E-02  2.331017391727E+00 -2.279015057646E+00
     9     9    12   -4.736545679916E+00 -2.282695003060E+00 -2.337341195182E+00
    10    10    20   -3.485653870300E-02  2.360699029787E+00  2.399648921835E+00
    11    11    20    2.310627456107E+00  4.697157476154E+00  2.367366569077E+00
    12    12    20   -2.327801794099E+00  3.481706068600E-02  2.345661418789E+00
    13    13    20    2.310491425988E+00  2.359093835649E+00  4.741016789908E+00
    14    14    20    4.668976290876E+00  4.678635409917E+00  4.727665565305E+00
    15    15    12    3.374470797100E-02  1.373553458300E-02  4.724200416880E+00
    16    16    12   -2.255855355998E+00  2.428725684389E+00  3.172557620900E-02
    17    17    20   -2.959028811400E-02  4.661162534179E+00 -5.003670235000E-02
    18    18    20   -4.676565055774E+00  5.318587934400E-02 -3.079537508100E-02
    19    19    12    3.940846203100E-02 -2.357350513461E+00 -2.336929607525E+00
    20    20    12    2.228835033913E+00 -9.197852263500E-02 -2.320223495481E+00
    21    21    20   -2.333011991588E+00 -4.663089169979E+00 -2.381881467620E+00
    22    22    12    2.325349475926E+00 -2.405340052771E+00 -1.001986900160E-01
    23    23    20    4.658730458548E+00 -3.349564486700E-02  1.695594297300E-02
    24    24    12   -2.095228921100E-02 -4.599561485071E+00 -1.338574053670E-01
    25    25    12   -2.369789662490E+00 -2.393894191768E+00 -4.646746112620E+00
    26    26    20   -5.765488723000E-03 -4.876128135000E-03 -4.652111532688E+00
    27    27    20   -4.675411955622E+00 -4.635066055973E+00 -4.673358352229E+00
    28    28     8    1.180486420170E-01 -3.482348838700E-02 -2.340842972023E+00
    29    29     8    2.183964335600E+00  2.326733208161E+00 -2.332347172816E+00
    30    30     8   -2.327450554605E+00 -2.335229400929E+00 -2.419339641311E+00
    31    31     8    2.326033904707E+00 -1.090210895450E-01 -9.158220100500E-02
    32    32     8    4.735333888114E+00  2.331896007608E+00 -1.708357071600E-02
    33    33     8    1.002295146240E-01 -2.442253124539E+00 -8.629091526700E-02
    34    34     8    4.660135467691E+00 -7.883945146400E-02  2.346808980414E+00
    35    35     8    6.979588136785E+00  2.339838319370E+00  2.376772506435E+00
    36    36     8    2.451582236371E+00 -2.327327440839E+00  2.449036757471E+00
    37    37     8   -8.650665958900E-02  2.334073767343E+00 -4.406258485400E-02
    38    38     8    2.322802858610E+00  4.676719518441E+00 -4.581431508700E-02
    39    39     8   -2.329335027970E+00  6.658805263500E-02 -6.714254990000E-03
    40    40     8    2.337191519720E+00  2.336141655466E+00  2.367746381129E+00
    41    41     8    4.669148642323E+00  4.676191240904E+00  2.348409646514E+00
    42    42     8    1.385744265800E-02  7.669277313000E-03  2.394764059224E+00
    43    43     8    4.784814028936E+00  2.339321800355E+00  4.759066549743E+00
    44    44     8    7.102034141359E+00  4.692029714634E+00  4.683896778441E+00
    45    45     8    2.225131675255E+00 -7.068782342800E-02  4.674636764574E+00
    46    46     8   -7.273370065500E-02  4.665083315923E+00  2.404296735432E+00
    47    47     8    2.328082769314E+00  7.007062358801E+00  2.366136250709E+00
    48    48     8   -2.328950791694E+00  2.432613178270E+00  2.269857470402E+00
    49    49     8    2.235914156892E+00  4.758153503791E+00  4.747827395811E+00
    50    50     8    4.683008761511E+00  7.002081023276E+00  4.693860462806E+00
    51    51     8    1.026929345000E-02  2.349921044180E+00  4.768530286357E+00
    52    52     8    4.554026676138E+00  4.558426355574E+00  7.082356205603E+00
    53    53     8    6.988027526021E+00  7.102801365963E+00  6.972648679284E+00
    54    54     8    2.313724381591E+00  2.469528381124E+00  7.025161034105E+00

 SYMMETRY CHANGED DURING OLD RUN :  INFORMATION ON SPACE GROUP LOST 
 NUMBER OF SYMMETRY OPERATORS         :    1
 *******************************************************************************
 LATTICE PARAMETERS (ANGSTROMS AND DEGREES) - BOHR = 0.5291772083 ANGSTROM
 PRIMITIVE CELL - CENTRING CODE 1/0 VOLUME=   687.658995 - DENSITY  3.301 g/cm^3
         A              B              C           ALPHA      BETA       GAMMA 
     9.92662631     9.91425663     9.89281096    60.049940  59.975464  59.825451
 *******************************************************************************
 ATOMS IN THE ASYMMETRIC UNIT   54 - ATOMS IN THE UNIT CELL:   54
     ATOM                 X/A                 Y/B                 Z/C    
 *******************************************************************************
      1 T  20 CA   -6.131921147624E-03 -3.144350335922E-03  4.375552815227E-03
      2 T  20 CA   -3.895205586360E-03 -6.199618998615E-03  3.356722026943E-01
      3 T  20 CA   -5.450314790862E-03 -1.712974920694E-04 -3.303199038342E-01
      4 T  20 CA   -3.777396362820E-03  3.378156100033E-01 -4.042104411574E-03
      5 T  20 CA   -3.153746159229E-03  3.371128084989E-01  3.352248453725E-01
      6 T  20 CA   -3.010528208801E-03  3.397043949259E-01 -3.323432014689E-01
      7 T  20 CA   -3.588922804425E-03 -3.298625654197E-01  5.365194100230E-04
      8 T  12 MG    2.074830284913E-03 -3.267332198922E-01  3.310918570852E-01
      9 T  12 MG    9.998269830100E-03 -3.421932340191E-01 -3.354815608748E-01
     10 T  20 CA    3.415749127821E-01 -2.688623937866E-04 -4.692680040431E-03
     11 T  20 CA    3.379925986146E-01 -1.665813033281E-03  3.324513351893E-01
     12 T  20 CA    3.360125134987E-01 -2.010855583573E-03 -3.311746753693E-01
     13 T  20 CA    3.401408922512E-01  3.343140334179E-01 -3.882198924768E-03
     14 T  20 CA    3.357683274332E-01  3.364032091218E-01  3.316331748630E-01
     15 T  12 MG    3.346745125910E-01  3.377683090762E-01 -3.332468758917E-01
     16 T  12 MG    3.369544704417E-01 -3.325911748718E-01  1.003356033438E-02
     17 T  20 CA    3.309682495896E-01 -3.386093459005E-01  3.347375223692E-01
     18 T  20 CA    3.363900673740E-01 -3.405335599962E-01 -3.285303976604E-01
     19 T  12 MG   -3.371997145759E-01  4.820563913271E-03  7.883921373147E-04
     20 T  12 MG   -3.311942719935E-01  8.250517674868E-04  3.181953839903E-01
     21 T  20 CA   -3.349932350721E-01 -3.402238350096E-03 -3.305822461921E-01
     22 T  12 MG   -3.451333339845E-01  3.310172608211E-01  1.489040576935E-03
     23 T  20 CA   -3.346937390846E-01  3.368660562540E-01  3.296487433502E-01
     24 T  12 MG   -3.360403543130E-01  3.175016093466E-01 -3.208441430544E-01
     25 T  12 MG   -3.316705667416E-01 -3.293587990377E-01 -9.565567010693E-03
     26 T  20 CA   -3.309168176726E-01 -3.312672798691E-01  3.307447868669E-01
     27 T  20 CA   -3.283366959627E-01 -3.361092382074E-01 -3.328480722996E-01
     28 T   8 O    -1.774773202303E-01 -1.557222927801E-01  1.727610140953E-01
     29 T   8 O    -1.563546662604E-01 -1.760079228075E-01  4.887955131516E-01
     30 T   8 O    -1.720455405595E-01 -1.719419408745E-01 -1.610654656854E-01
     31 T   8 O    -1.808077735273E-01  1.676617711769E-01  1.651184376877E-01
     32 T   8 O    -1.739120270906E-01  1.709710253898E-01 -4.933125996788E-01
     33 T   8 O    -1.874833697272E-01  1.754680513922E-01 -1.613104979385E-01
     34 T   8 O    -1.722669330792E-01 -4.939227823853E-01  1.604834901182E-01
     35 T   8 O    -1.636936687294E-01 -4.986229984512E-01  4.972087735517E-01
     36 T   8 O    -1.672373089956E-01 -4.840340798468E-01 -1.655595599977E-01
     37 T   8 O     1.695119769754E-01 -1.760399147440E-01  1.638458380145E-01
     38 T   8 O     1.639738873090E-01 -1.711393853830E-01 -4.961777036631E-01
     39 T   8 O     1.710245358416E-01 -1.718652116921E-01 -1.613841501594E-01
     40 T   8 O     1.677425731154E-01  1.689004720717E-01  1.655039892791E-01
     41 T   8 O     1.663057647634E-01  1.672010146128E-01 -4.989853269576E-01
     42 T   8 O     1.699341699304E-01  1.709367062547E-01 -1.691093931103E-01
     43 T   8 O     1.628820757361E-01 -4.859858199937E-01  1.704130608896E-01
     44 T   8 O     1.594306639394E-01 -4.936186275247E-01 -4.902467034368E-01
     45 T   8 O     1.682495648530E-01  4.970325384869E-01 -1.789955010771E-01
     46 T   8 O    -4.910461424825E-01 -1.672415134461E-01  1.570378004411E-01
     47 T   8 O    -4.986141323501E-01 -1.654930115492E-01  4.989535150101E-01
     48 T   8 O    -4.983000763659E-01 -1.787558944053E-01 -1.544047393487E-01
     49 T   8 O    -4.829472276309E-01  1.581076600598E-01  1.618385056759E-01
     50 T   8 O     4.980547025461E-01  1.690448542422E-01 -4.988200296634E-01
     51 T   8 O    -4.938864013033E-01  1.723795817743E-01 -1.710400173706E-01
     52 T   8 O    -4.970471072505E-01 -4.955935104583E-01  1.470217263886E-01
     53 T   8 O    -4.976472155457E-01  4.889787107689E-01 -4.891184156733E-01
     54 T   8 O    -4.897058841130E-01  4.892750663680E-01 -1.585208505644E-01

 T = ATOM BELONGING TO THE ASYMMETRIC UNIT
 *******************************************************************************
 * GEOMETRY EDITING - INPUT COORDINATES ARE GIVEN IN ANGSTROM         
 *******************************************************************************

 GCALCO - MAX INDICES DIRECT LATTICE VECTOR    14    14    14
 NO.OF VECTORS CREATED 6999 STARS 3500 RMAX   198.34206 BOHR

 GEOMETRY FOR WAVE FUNCTION - DIMENSIONALITY OF THE SYSTEM    3
 (NON PERIODIC DIRECTION: LATTICE PARAMETER FORMALLY SET TO 500)
 *******************************************************************************
 LATTICE PARAMETERS (ANGSTROMS AND DEGREES) - BOHR = 0.5291772083 ANGSTROM
 PRIMITIVE CELL - CENTRING CODE 1/0 VOLUME=   687.658995 - DENSITY  3.301 g/cm^3
         A              B              C           ALPHA      BETA       GAMMA 
     9.92662631     9.91425663     9.89281096    60.049940  59.975464  59.825451
 *******************************************************************************
 ATOMS IN THE ASYMMETRIC UNIT   54 - ATOMS IN THE UNIT CELL:   54
     ATOM                 X/A                 Y/B                 Z/C    
 *******************************************************************************
      1 T  20 CA   -6.131921147624E-03 -3.144350335922E-03  4.375552815227E-03
      2 T  20 CA   -3.895205586360E-03 -6.199618998615E-03  3.356722026943E-01
      3 T  20 CA   -5.450314790862E-03 -1.712974920695E-04 -3.303199038342E-01
      4 T  20 CA   -3.777396362820E-03  3.378156100033E-01 -4.042104411574E-03
      5 T  20 CA   -3.153746159229E-03  3.371128084989E-01  3.352248453725E-01
      6 T  20 CA   -3.010528208801E-03  3.397043949259E-01 -3.323432014689E-01
      7 T  20 CA   -3.588922804425E-03 -3.298625654197E-01  5.365194100229E-04
      8 T  12 MG    2.074830284913E-03 -3.267332198922E-01  3.310918570852E-01
      9 T  12 MG    9.998269830100E-03 -3.421932340191E-01 -3.354815608748E-01
     10 T  20 CA    3.415749127821E-01 -2.688623937865E-04 -4.692680040431E-03
     11 T  20 CA    3.379925986146E-01 -1.665813033281E-03  3.324513351893E-01
     12 T  20 CA    3.360125134987E-01 -2.010855583573E-03 -3.311746753693E-01
     13 T  20 CA    3.401408922512E-01  3.343140334179E-01 -3.882198924768E-03
     14 T  20 CA    3.357683274332E-01  3.364032091218E-01  3.316331748630E-01
     15 T  12 MG    3.346745125910E-01  3.377683090762E-01 -3.332468758917E-01
     16 T  12 MG    3.369544704417E-01 -3.325911748718E-01  1.003356033438E-02
     17 T  20 CA    3.309682495896E-01 -3.386093459005E-01  3.347375223692E-01
     18 T  20 CA    3.363900673740E-01 -3.405335599962E-01 -3.285303976604E-01
     19 T  12 MG   -3.371997145759E-01  4.820563913271E-03  7.883921373147E-04
     20 T  12 MG   -3.311942719935E-01  8.250517674868E-04  3.181953839903E-01
     21 T  20 CA   -3.349932350721E-01 -3.402238350096E-03 -3.305822461921E-01
     22 T  12 MG   -3.451333339845E-01  3.310172608211E-01  1.489040576935E-03
     23 T  20 CA   -3.346937390846E-01  3.368660562540E-01  3.296487433502E-01
     24 T  12 MG   -3.360403543130E-01  3.175016093466E-01 -3.208441430544E-01
     25 T  12 MG   -3.316705667416E-01 -3.293587990377E-01 -9.565567010693E-03
     26 T  20 CA   -3.309168176726E-01 -3.312672798691E-01  3.307447868669E-01
     27 T  20 CA   -3.283366959627E-01 -3.361092382074E-01 -3.328480722996E-01
     28 T   8 O    -1.774773202303E-01 -1.557222927801E-01  1.727610140953E-01
     29 T   8 O    -1.563546662604E-01 -1.760079228075E-01  4.887955131516E-01
     30 T   8 O    -1.720455405595E-01 -1.719419408745E-01 -1.610654656854E-01
     31 T   8 O    -1.808077735273E-01  1.676617711769E-01  1.651184376877E-01
     32 T   8 O    -1.739120270906E-01  1.709710253898E-01 -4.933125996788E-01
     33 T   8 O    -1.874833697272E-01  1.754680513922E-01 -1.613104979385E-01
     34 T   8 O    -1.722669330792E-01 -4.939227823853E-01  1.604834901182E-01
     35 T   8 O    -1.636936687294E-01 -4.986229984512E-01  4.972087735517E-01
     36 T   8 O    -1.672373089956E-01 -4.840340798468E-01 -1.655595599977E-01
     37 T   8 O     1.695119769754E-01 -1.760399147440E-01  1.638458380145E-01
     38 T   8 O     1.639738873090E-01 -1.711393853830E-01 -4.961777036631E-01
     39 T   8 O     1.710245358416E-01 -1.718652116921E-01 -1.613841501594E-01
     40 T   8 O     1.677425731154E-01  1.689004720717E-01  1.655039892791E-01
     41 T   8 O     1.663057647634E-01  1.672010146128E-01 -4.989853269576E-01
     42 T   8 O     1.699341699304E-01  1.709367062547E-01 -1.691093931103E-01
     43 T   8 O     1.628820757361E-01 -4.859858199937E-01  1.704130608896E-01
     44 T   8 O     1.594306639394E-01 -4.936186275247E-01 -4.902467034368E-01
     45 T   8 O     1.682495648530E-01  4.970325384869E-01 -1.789955010771E-01
     46 T   8 O    -4.910461424825E-01 -1.672415134461E-01  1.570378004411E-01
     47 T   8 O    -4.986141323501E-01 -1.654930115492E-01  4.989535150101E-01
     48 T   8 O    -4.983000763659E-01 -1.787558944053E-01 -1.544047393487E-01
     49 T   8 O    -4.829472276309E-01  1.581076600598E-01  1.618385056759E-01
     50 T   8 O     4.980547025461E-01  1.690448542422E-01 -4.988200296634E-01
     51 T   8 O    -4.938864013033E-01  1.723795817743E-01 -1.710400173706E-01
     52 T   8 O    -4.970471072504E-01 -4.955935104583E-01  1.470217263886E-01
     53 T   8 O    -4.976472155457E-01  4.889787107689E-01 -4.891184156733E-01
     54 T   8 O    -4.897058841130E-01  4.892750663680E-01 -1.585208505644E-01

 T = ATOM BELONGING TO THE ASYMMETRIC UNIT

 ****    1 SYMMOPS - TRANSLATORS IN FRACTIONAL UNITS
 **** MATRICES AND TRANSLATORS IN THE CRYSTALLOGRAPHIC REFERENCE FRAME
   V INV                    ROTATION MATRICES                   TRANSLATORS
   1   1  1.00  0.00  0.00  0.00  1.00  0.00  0.00  0.00  1.00  0.00  0.00  0.00

 DIRECT LATTICE VECTORS CARTESIAN COMPONENTS (ANGSTROM)
          X                    Y                    Z
  -0.567621864314E-03   0.700745781967E+01   0.703089215255E+01
   0.699284168142E+01   0.826854790592E-02   0.702798558144E+01
   0.698588884772E+01   0.700464135760E+01   0.807447452496E-02


 CARTESIAN COORDINATES - PRIMITIVE CELL
 *******************************************************************************
 *      ATOM          X(ANGSTROM)         Y(ANGSTROM)         Z(ANGSTROM)
 *******************************************************************************
    1    20 CA    8.582662137000E-03 -1.234599979500E-02 -6.517599481100E-02
    2    20 CA    2.301617954153E+00  2.323916642897E+00 -6.824722667300E-02
    3    20 CA   -2.308772894900E+00 -2.351966727018E+00 -4.219161144500E-02
    4    20 CA    2.334055530268E+00 -5.199019285900E-02  2.347572131975E+00
    5    20 CA    4.699221797513E+00  2.328817506213E+00  2.349757072801E+00
    6    20 CA    5.378809628400E-02 -2.346232221301E+00  2.363587393619E+00
    7    20 CA   -2.302926594493E+00 -2.411858354600E-02 -2.343498350696E+00
    8    12 MG    2.817605549700E-02  2.331017391727E+00 -2.279015057646E+00
    9    12 MG   -4.736545679916E+00 -2.282695003060E+00 -2.337341195182E+00
   10    20 CA   -3.485653870300E-02  2.360699029787E+00  2.399648921835E+00
   11    20 CA    2.310627456107E+00  4.697157476154E+00  2.367366569077E+00
   12    20 CA   -2.327801794099E+00  3.481706068600E-02  2.345661418789E+00
   13    20 CA    2.310491425988E+00  2.359093835649E+00  4.741016789908E+00
   14    20 CA    4.668976290876E+00  4.678635409917E+00  4.727665565305E+00
   15    12 MG    3.374470797100E-02  1.373553458300E-02  4.724200416880E+00
   16    12 MG   -2.255855355998E+00  2.428725684389E+00  3.172557620900E-02
   17    20 CA   -2.959028811400E-02  4.661162534179E+00 -5.003670235000E-02
   18    20 CA   -4.676565055774E+00  5.318587934400E-02 -3.079537508100E-02
   19    12 MG    3.940846203100E-02 -2.357350513461E+00 -2.336929607525E+00
   20    12 MG    2.228835033913E+00 -9.197852263500E-02 -2.320223495481E+00
   21    20 CA   -2.333011991588E+00 -4.663089169979E+00 -2.381881467620E+00
   22    12 MG    2.325349475926E+00 -2.405340052771E+00 -1.001986900160E-01
   23    20 CA    4.658730458548E+00 -3.349564486700E-02  1.695594297300E-02
   24    12 MG   -2.095228921100E-02 -4.599561485071E+00 -1.338574053670E-01
   25    12 MG   -2.369789662490E+00 -2.393894191768E+00 -4.646746112620E+00
   26    20 CA   -5.765488723000E-03 -4.876128135000E-03 -4.652111532688E+00
   27    20 CA   -4.675411955622E+00 -4.635066055973E+00 -4.673358352229E+00
   28     8 O     1.180486420170E-01 -3.482348838700E-02 -2.340842972023E+00
   29     8 O     2.183964335600E+00  2.326733208161E+00 -2.332347172816E+00
   30     8 O    -2.327450554605E+00 -2.335229400929E+00 -2.419339641311E+00
   31     8 O     2.326033904707E+00 -1.090210895450E-01 -9.158220100500E-02
   32     8 O     4.735333888114E+00  2.331896007608E+00 -1.708357071600E-02
   33     8 O     1.002295146240E-01 -2.442253124539E+00 -8.629091526700E-02
   34     8 O     4.660135467691E+00 -7.883945146400E-02  2.346808980414E+00
   35     8 O     6.979588136785E+00  2.339838319370E+00  2.376772506435E+00
   36     8 O     2.451582236371E+00 -2.327327440839E+00  2.449036757471E+00
   37     8 O    -8.650665958900E-02  2.334073767343E+00 -4.406258485400E-02
   38     8 O     2.322802858610E+00  4.676719518441E+00 -4.581431508700E-02
   39     8 O    -2.329335027970E+00  6.658805263500E-02 -6.714254990000E-03
   40     8 O     2.337191519720E+00  2.336141655466E+00  2.367746381129E+00
   41     8 O     4.669148642323E+00  4.676191240904E+00  2.348409646514E+00
   42     8 O     1.385744265800E-02  7.669277313000E-03  2.394764059224E+00
   43     8 O     4.784814028936E+00  2.339321800355E+00  4.759066549743E+00
   44     8 O     7.102034141359E+00  4.692029714634E+00  4.683896778441E+00
   45     8 O     2.225131675255E+00 -7.068782342800E-02  4.674636764574E+00
   46     8 O    -7.273370065500E-02  4.665083315923E+00  2.404296735432E+00
   47     8 O     2.328082769314E+00  7.007062358801E+00  2.366136250709E+00
   48     8 O    -2.328950791694E+00  2.432613178270E+00  2.269857470402E+00
   49     8 O     2.235914156892E+00  4.758153503791E+00  4.747827395811E+00
   50     8 O     4.683008761511E+00  7.002081023276E+00  4.693860462806E+00
   51     8 O     1.026929345000E-02  2.349921044180E+00  4.768530286357E+00
   52     8 O     4.554026676138E+00  4.558426355574E+00  7.082356205603E+00
   53     8 O     6.988027526021E+00  7.102801365963E+00  6.972648679284E+00
   54     8 O     2.313724381591E+00  2.469528381124E+00  7.025161034105E+00
 WARNING **** CRYSTA **** TESTGEOM  DIRECTIVE - GEOMETRY EDITING COMPLETE
 TTTTTTTTTTTTTTTTTTTTTTTTTTTTTT END         TELAPSE        0.01 TCPU        0.01
 EEEEEEEEEE TERMINATION  DATE 10 03 2023 TIME 10:31:56.8
Fri 10 Mar 2023 10:31:56 GMT
Contents of temporary directory:
total 8
-rw-r--r--  1 brunocamino  admin  4027 10 Mar 10:31 fort.34
SCF abnormal end - no wf written in fort.9
geometry input file fort.34 saved as /Users/brunocamino/Desktop/Imperial/cmsg_icl/solid-solutions/./data/crystal/testgeom_opt/CaMgO_testgeom_3105.gui
temporary directory /Users/brunocamino/crystal/tmp removed
