date Fri 10 Mar 2023 10:31:20 GMT
hostname MacBook-Pro-8
system Darwin MacBook-Pro-8 21.6.0 Darwin Kernel Version 21.6.0: Mon Aug 22 20:20:05 PDT 2022; root:xnu-8020.140.49~2/RELEASE_ARM64_T8101 arm64
user brunocamino
output data in /Users/brunocamino/Desktop/Imperial/cmsg_icl/solid-solutions/./data/crystal/testgeom_opt/CaMgO_testgeom_2655.out
crystal executable in /Users/brunocamino/crystal
input data in /Users/brunocamino/Desktop/Imperial/cmsg_icl/solid-solutions/./data/crystal/testgeom_opt/CaMgO_testgeom_2655.d12
temporary directory /Users/brunocamino/crystal/tmp
external geometry input from /Users/brunocamino/Desktop/Imperial/cmsg_icl/solid-solutions/./data/crystal/testgeom_opt/CaMgO_testgeom_2655.gui
external geometry input saved in /Users/brunocamino/Desktop/Imperial/cmsg_icl/solid-solutions/./data/crystal/testgeom_opt/CaMgO_testgeom_2655_inp.gui
Bulk 
EXTERNAL
EXTPRT
TESTGEOM
END

         
 *******************************************************************************
 *                                                                             *
 *                               CRYSTAL17                                     *
 *                      public : 1.0.1 - Feb 1st, 2017                         *
 *                       HTTP://WWW.CRYSTAL.UNITO.IT                           *
 *                                                                             *
 *                              MAIN AUTHORS                                   *
 *                                                                             *
 *  R. DOVESI(1,11), V.R. SAUNDERS(2), C. ROETTI(1,11), R. ORLANDO(1,11),      *
 *  C.M. ZICOVICH-WILSON(1,3), F. PASCALE(4), B. CIVALLERI(1,11),              *
 *  K. DOLL(5), N.M. HARRISON(2,6), I.J. BUSH(7), Ph. D'ARCO(8),               *
 *  M. LLUNELL(9), M. CAUSA'(10), Y. NOEL(8), L. MASCHIO(1,11), A. ERBA(1,11)  *
 *  M. RE'RAT(14), S. CASASSA(1,11)                                            *
 *                                                                             *
 *        CONTRIBUTIONS TO THE CODE HAVE ALSO BEEN GIVEN BY                    *
 *                                                                             *
 *  M. FERRABONE(1,11), M. DE LA PIERRE(1,11), M. FERRERO(1,11),               *
 *  J. BAIMA(1,11), E. ALBANESE(1,11), M.F. PEINTINGER(12), R. BAST(13),       *
 *  B. KIRTMAN(15), V. LACIVITA(1,11), R. DEMICHELIS(1,16)                     *
 *  G. BRANDEBURG(17), S. SALUSTRO(1,11), G. SANSONE(1,11)                     *
 *  M.T. RUGGIERO(18)                                                          *
 *                                                                             *
 * (1) THEORETICAL CHEMISTRY GROUP - UNIVERSITA' DI TORINO - TORINO (ITALY)    *

 * (2) COMPUTATIONAL SCIENCE & ENGINEERING DEPARTMENT - STFC DARESBURY (UK)    *
 * (3) UNIVERSIDAD AUTONOMA DEL ESTADO DE MORELOS - CUERNAVACA (MEXICO)        *
 * (4) UNIVERSITE' DE LORRAINE - NANCY (FRANCE)                                *
 * (5) UNIVERSITAET STUTTGART- STUTTGART (GERMANY)                             *
 * (6) IMPERIAL COLLEGE - LONDON (UK)                                          *
 * (7) OXFORD E-RESEARCH CENTRE - OXFORD (UK)                                  *
 * (8) UPMC - SORBONNE UNIVERSITES - PARIS (FRANCE)                            *
 * (9) UNIVERSIDAD DE BARCELONA - BARCELONA (SPAIN)                            *
 *(10) UNIVERSITA' DI NAPOLI "FEDERICO II" - NAPOLI (ITALY)                    *
 *(11) NIS - NANOSTRUCTURED INTERFACES AND SURFACES - TORINO (ITALY)           *
 *(12) MPI FUER CHEMISCHE ENERGIEKONVERSION - MUELHEIM AN DER RUHR (GERMANY)   *
 *(13) UNIVERSITY OF TROMSO - TROMSO (NORWAY)                                  *
 *(14) UNIVERSITE' DE PAU ET DES PAYS DE L'ADOUR - PAU (FRANCE)                *
 *(15) UNIVERSITY OF CALIFORNIA SANTA BARBARA - SANTA BARBARA (USA)            *
 *(16) CURTIN UNIVERSITY - PERTH (AUSTRALIA)                                   *
 *(17) UNIVERSITY COLLEGE LONDON - LONDON (UK)                                 *
 *(18) CAMBRIDGE UNIVERSITY - CAMBRIDGE (UK)                                   *
 *                                                                             *
 *******************************************************************************
 EEEEEEEEEE STARTING  DATE 10 03 2023 TIME 10:31:20.2
 Bulk                                                                            

 GEOMETRY INPUT FROM EXTERNAL FILE (FORTRAN UNIT 34)
 3D - CRYSTAL 

 *******************************************************************************
 LATTICE PARAMETERS  (ANGSTROMS AND DEGREES) - PRIMITIVE CELL
       A          B          C        ALPHA      BETA     GAMMA        VOLUME
    9.90762    9.93147    9.90470    59.88753  60.04764  59.82722    687.899559
 INFORMATION **** CHKGRP **** SPGR WITH NO INVERSION

 NUMBER OF IRREDUCIBLE ATOMS IN THE CELL:   54

 CARTESIAN COORDINATES (ANGSTROM) - IRREDUCIBLE ATOMS AND SYMMETRY RELATED

 AT.IRR.  AT  AT.N.          X                   Y                   Z
     1     1    20   -1.657556592400E-02 -1.957497326000E-02 -3.246023088800E-02
     2     2    20    2.371007351761E+00  2.326235994430E+00 -3.734040934500E-02
     3     3    20   -2.330451102990E+00 -2.359323988320E+00 -3.011927516500E-02
     4     4    20    2.331325565992E+00 -1.003605440200E-02  2.405438354351E+00
     5     5    20    4.686614451094E+00  2.325435200162E+00  2.326743935456E+00
     6     6    20    2.340119171900E-02 -2.343983269316E+00  2.333457593788E+00
     7     7    20   -2.374427340232E+00 -3.709278088900E-02 -2.324684063563E+00
     8     8    20    8.729912594000E-03  2.344906169158E+00 -2.353209536588E+00
     9     9    12   -4.697233845448E+00 -2.438398478090E+00 -2.386707073753E+00
    10    10    20   -3.843978723800E-02  2.329651217406E+00  2.357431239903E+00
    11    11    20    2.344262462609E+00  4.678332058522E+00  2.359368428356E+00
    12    12    12   -2.340307906452E+00  7.582398181400E-02  2.289261914569E+00
    13    13    12    2.318837867218E+00  2.389182854122E+00  4.731977868349E+00
    14    14    20    4.669160297018E+00  4.701176513313E+00  4.723083977989E+00
    15    15    20   -1.895675318200E-02  6.785670552800E-02  4.695596943751E+00
    16    16    12   -2.388697166070E+00  2.264315007170E+00  2.586322470000E-04
    17    17    20   -2.382998724800E-02  4.679346017280E+00  2.077575101000E-03
    18    18    20   -4.675668590937E+00  5.239997693700E-02 -1.480980177200E-02
    19    19    12    4.316864487800E-02 -2.464681325462E+00 -2.298966042998E+00
    20    20    20    2.376510907988E+00  1.416374627300E-02 -2.362295136045E+00
    21    21    12   -2.399215798860E+00 -4.662244025503E+00 -2.333623044743E+00
    22    22    20    2.354360218368E+00 -2.383801326692E+00  6.207398255000E-03
    23    23    12    4.719412010956E+00  1.151225091180E-01  2.974901444300E-02
    24    24    12   -7.707300374000E-02 -4.653632399154E+00 -8.185932925700E-02
    25    25    20   -2.343174385928E+00 -2.390475086468E+00 -4.666286262357E+00
    26    26    20   -3.626411640000E-03  1.056949599600E-02 -4.677606209876E+00
    27    27    12   -4.595460727271E+00 -4.669828797105E+00 -4.638132609212E+00
    28    28     8    2.210884775000E-03 -7.632366108900E-02 -2.341147278924E+00
    29    29     8    2.407958470768E+00  2.420862423080E+00 -2.414695283573E+00
    30    30     8   -2.358158643931E+00 -2.461437820125E+00 -2.322891796821E+00
    31    31     8    2.426851098457E+00 -1.219205225000E-03  1.791305447900E-02
    32    32     8    4.749378864297E+00  2.244617067866E+00 -7.690764714400E-02
    33    33     8   -1.425091622500E-02 -2.427675601656E+00 -5.003324120000E-02
    34    34     8    4.669504948870E+00  1.638088568000E-03  2.281808140944E+00
    35    35     8    7.102418625196E+00  2.334584209887E+00  2.283551839195E+00
    36    36     8    2.355035217721E+00 -2.426252001536E+00  2.435079821162E+00
    37    37     8   -7.591834066400E-02  2.319312850769E+00 -2.742853600000E-02
    38    38     8    2.329140105500E+00  4.658520234560E+00 -7.961478665300E-02
    39    39     8   -2.332442672615E+00  7.888672479500E-02  6.814414397000E-02
    40    40     8    2.344379041060E+00  2.336607527634E+00  2.383850127245E+00
    41    41     8    4.673937347554E+00  4.744756963308E+00  2.353248225521E+00
    42    42     8   -1.026706005870E-01  5.905606928000E-03  2.354490375084E+00
    43    43     8    4.594256875293E+00  2.337395585226E+00  4.742369302028E+00
    44    44     8    7.104499948940E+00  4.677951534822E+00  4.693746559423E+00
    45    45     8    2.329661217403E+00  2.481356886400E-02  4.687511395914E+00
    46    46     8    2.445956566200E-02  4.657935120229E+00  2.360080069089E+00
    47    47     8    2.433994789248E+00  7.095702385895E+00  2.346333640758E+00
    48    48     8   -2.424386203064E+00  2.218553789120E+00  2.311702939259E+00
    49    49     8    2.260356192407E+00  4.568716618916E+00  4.691854610564E+00
    50    50     8    4.681936562763E+00  7.141418626468E+00  4.690178429210E+00
    51    51     8    6.955503260000E-02  2.444303292110E+00  4.783546357414E+00
    52    52     8    4.690948135303E+00  4.656102514983E+00  7.030698402200E+00
    53    53     8    6.904576683246E+00  7.118516422912E+00  7.030394363401E+00
    54    54     8    2.410335205996E+00  2.333662548428E+00  6.994509360145E+00

 SYMMETRY CHANGED DURING OLD RUN :  INFORMATION ON SPACE GROUP LOST 
 NUMBER OF SYMMETRY OPERATORS         :    1
 *******************************************************************************
 LATTICE PARAMETERS (ANGSTROMS AND DEGREES) - BOHR = 0.5291772083 ANGSTROM
 PRIMITIVE CELL - CENTRING CODE 1/0 VOLUME=   687.899559 - DENSITY  3.300 g/cm^3
         A              B              C           ALPHA      BETA       GAMMA 
     9.90762386     9.93147458     9.90469678    59.887531  60.047645  59.827218
 *******************************************************************************
 ATOMS IN THE ASYMMETRIC UNIT   54 - ATOMS IN THE UNIT CELL:   54
     ATOM                 X/A                 Y/B                 Z/C    
 *******************************************************************************
      1 T  20 CA   -2.529999827116E-03 -2.091219402765E-03 -2.676229628884E-04
      2 T  20 CA   -5.600039778151E-03 -1.017060471777E-04  3.381900070009E-01
      3 T  20 CA   -4.472448796848E-03  5.610465434855E-04 -3.328558374739E-01
      4 T  20 CA    4.190115788604E-03  3.381948368905E-01 -6.083336333035E-03
      5 T  20 CA   -2.573795477278E-03  3.333674803081E-01  3.345965968882E-01
      6 T  20 CA   -3.059528353079E-03  3.355660313963E-01 -3.325312954606E-01
      7 T  20 CA    1.272602103215E-03 -3.321467453684E-01 -6.122115184105E-03
      8 T  20 CA   -5.774878070036E-04 -3.347465714755E-01  3.362966414960E-01
      9 T  12 MG   -9.023430577546E-03 -3.303059465306E-01 -3.391624603108E-01
     10 T  20 CA    3.374447225867E-01 -1.720365038446E-03 -4.128053649905E-03
     11 T  20 CA    3.354145532383E-01  2.008802906649E-04  3.337008350777E-01
     12 T  12 MG    3.357663427534E-01 -9.381710595154E-03 -3.246814208186E-01
     13 T  12 MG    3.425564755220E-01  3.311461162786E-01 -1.178682773696E-03
     14 T  20 CA    3.394425511889E-01  3.326136423676E-01  3.324884821596E-01
     15 T  20 CA    3.408808922715E-01  3.280175163331E-01 -3.313916857476E-01
     16 T  12 MG    3.326544995300E-01 -3.324339820010E-01 -8.231578034384E-03
     17 T  20 CA    3.366369965495E-01 -3.365430402261E-01  3.330834259981E-01
     18 T  20 CA    3.366953121499E-01 -3.382537677846E-01 -3.285103118376E-01
     19 T  12 MG   -3.432763125149E-01  1.588581418181E-02 -9.369624447252E-03
     20 T  20 CA   -3.371195799482E-01  3.229640917642E-04  3.389120787917E-01
     21 T  12 MG   -3.285030216371E-01 -3.439118295141E-03 -3.383030045706E-01
     22 T  20 CA   -3.382895370298E-01  3.389994162165E-01 -3.229779136017E-03
     23 T  12 MG   -3.267698124842E-01  3.304438838469E-01  3.425538309339E-01
     24 T  12 MG   -3.332757216347E-01  3.218274814953E-01 -3.327459131498E-01
     25 T  20 CA   -3.362283990775E-01 -3.281133270169E-01 -5.333929310677E-03
     26 T  20 CA   -3.323743719980E-01 -3.339619723727E-01  3.341121184474E-01
     27 T  12 MG   -3.364096313971E-01 -3.235551314026E-01 -3.310497258620E-01
     28 T   8 O    -1.724804437518E-01 -1.610185659825E-01  1.616688871883E-01
     29 T   8 O    -1.709120348141E-01 -1.734581756288E-01 -4.828461974371E-01
     30 T   8 O    -1.732130311877E-01 -1.573016089334E-01 -1.786158910170E-01
     31 T   8 O    -1.721702667019E-01  1.744347746871E-01  1.716395245457E-01
     32 T   8 O    -1.841562856422E-01  1.725400996840E-01 -4.952815946261E-01
     33 T   8 O    -1.762375695228E-01  1.692181626443E-01 -1.712115596163E-01
     34 T   8 O    -1.708118019628E-01  4.953080150497E-01  1.702529381787E-01
     35 T   8 O    -1.775683168841E-01 -4.980772127589E-01 -4.894511546470E-01
     36 T   8 O    -1.682605426597E-01 -4.850290523706E-01 -1.794510618554E-01
     37 T   8 O     1.694048683887E-01 -1.734046610388E-01  1.625520966421E-01
     38 T   8 O     1.612423515940E-01 -1.730633149671E-01 -4.948432030106E-01
     39 T   8 O     1.771166641842E-01 -1.671366923968E-01 -1.654879519603E-01
     40 T   8 O     1.696110217433E-01  1.695943751593E-01  1.643510404474E-01
     41 T   8 O     1.733126787091E-01  1.611522105749E-01 -4.950312931094E-01
     42 T   8 O     1.755695940624E-01  1.598451471968E-01 -1.748223343786E-01
     43 T   8 O     1.770495985522E-01  4.978661689131E-01  1.565825898332E-01
     44 T   8 O     1.617237872975E-01 -4.941340715534E-01 -4.934719802499E-01
     45 T   8 O     1.694538021809E-01  4.980166429943E-01 -1.664685554257E-01
     46 T   8 O     4.997188431627E-01 -1.637265115283E-01  1.668169731801E-01
     47 T   8 O    -4.989721986112E-01 -1.673856389373E-01 -4.859462213808E-01
     48 T   8 O     4.966747496592E-01 -1.671771754265E-01 -1.789069670685E-01
     49 T   8 O     4.998103951084E-01  1.680880642878E-01  1.535169659552E-01
     50 T   8 O    -4.892268027568E-01  1.564871966103E-01 -4.895902950133E-01
     51 T   8 O    -4.891490822749E-01  1.704615991385E-01 -1.612572719902E-01
     52 T   8 O     4.991331944189E-01 -4.983523547139E-01  1.662328231427E-01
     53 T   8 O    -4.828419972845E-01  4.832096823295E-01 -4.996907030888E-01
     54 T   8 O     4.933068796460E-01 -4.973096097186E-01 -1.599972429662E-01

 T = ATOM BELONGING TO THE ASYMMETRIC UNIT
 *******************************************************************************
 * GEOMETRY EDITING - INPUT COORDINATES ARE GIVEN IN ANGSTROM         
 *******************************************************************************

 GCALCO - MAX INDICES DIRECT LATTICE VECTOR    14    14    14
 NO.OF VECTORS CREATED 6999 STARS 3500 RMAX   198.26471 BOHR

 GEOMETRY FOR WAVE FUNCTION - DIMENSIONALITY OF THE SYSTEM    3
 (NON PERIODIC DIRECTION: LATTICE PARAMETER FORMALLY SET TO 500)
 *******************************************************************************
 LATTICE PARAMETERS (ANGSTROMS AND DEGREES) - BOHR = 0.5291772083 ANGSTROM
 PRIMITIVE CELL - CENTRING CODE 1/0 VOLUME=   687.899559 - DENSITY  3.300 g/cm^3
         A              B              C           ALPHA      BETA       GAMMA 
     9.90762386     9.93147458     9.90469678    59.887531  60.047645  59.827218
 *******************************************************************************
 ATOMS IN THE ASYMMETRIC UNIT   54 - ATOMS IN THE UNIT CELL:   54
     ATOM                 X/A                 Y/B                 Z/C    
 *******************************************************************************
      1 T  20 CA   -2.529999827116E-03 -2.091219402765E-03 -2.676229628884E-04
      2 T  20 CA   -5.600039778151E-03 -1.017060471777E-04  3.381900070009E-01
      3 T  20 CA   -4.472448796848E-03  5.610465434854E-04 -3.328558374739E-01
      4 T  20 CA    4.190115788604E-03  3.381948368905E-01 -6.083336333034E-03
      5 T  20 CA   -2.573795477278E-03  3.333674803081E-01  3.345965968882E-01
      6 T  20 CA   -3.059528353079E-03  3.355660313963E-01 -3.325312954606E-01
      7 T  20 CA    1.272602103215E-03 -3.321467453684E-01 -6.122115184105E-03
      8 T  20 CA   -5.774878070037E-04 -3.347465714755E-01  3.362966414960E-01
      9 T  12 MG   -9.023430577546E-03 -3.303059465306E-01 -3.391624603108E-01
     10 T  20 CA    3.374447225867E-01 -1.720365038446E-03 -4.128053649905E-03
     11 T  20 CA    3.354145532383E-01  2.008802906651E-04  3.337008350777E-01
     12 T  12 MG    3.357663427534E-01 -9.381710595154E-03 -3.246814208186E-01
     13 T  12 MG    3.425564755220E-01  3.311461162786E-01 -1.178682773696E-03
     14 T  20 CA    3.394425511889E-01  3.326136423676E-01  3.324884821596E-01
     15 T  20 CA    3.408808922715E-01  3.280175163331E-01 -3.313916857476E-01
     16 T  12 MG    3.326544995300E-01 -3.324339820010E-01 -8.231578034384E-03
     17 T  20 CA    3.366369965495E-01 -3.365430402261E-01  3.330834259981E-01
     18 T  20 CA    3.366953121499E-01 -3.382537677846E-01 -3.285103118376E-01
     19 T  12 MG   -3.432763125149E-01  1.588581418181E-02 -9.369624447252E-03
     20 T  20 CA   -3.371195799482E-01  3.229640917642E-04  3.389120787917E-01
     21 T  12 MG   -3.285030216371E-01 -3.439118295141E-03 -3.383030045706E-01
     22 T  20 CA   -3.382895370298E-01  3.389994162165E-01 -3.229779136017E-03
     23 T  12 MG   -3.267698124842E-01  3.304438838469E-01  3.425538309339E-01
     24 T  12 MG   -3.332757216347E-01  3.218274814953E-01 -3.327459131498E-01
     25 T  20 CA   -3.362283990775E-01 -3.281133270169E-01 -5.333929310677E-03
     26 T  20 CA   -3.323743719980E-01 -3.339619723727E-01  3.341121184474E-01
     27 T  12 MG   -3.364096313971E-01 -3.235551314026E-01 -3.310497258620E-01
     28 T   8 O    -1.724804437518E-01 -1.610185659825E-01  1.616688871883E-01
     29 T   8 O    -1.709120348141E-01 -1.734581756288E-01 -4.828461974371E-01
     30 T   8 O    -1.732130311877E-01 -1.573016089334E-01 -1.786158910170E-01
     31 T   8 O    -1.721702667019E-01  1.744347746871E-01  1.716395245457E-01
     32 T   8 O    -1.841562856422E-01  1.725400996840E-01 -4.952815946261E-01
     33 T   8 O    -1.762375695228E-01  1.692181626443E-01 -1.712115596163E-01
     34 T   8 O    -1.708118019628E-01  4.953080150497E-01  1.702529381787E-01
     35 T   8 O    -1.775683168841E-01 -4.980772127589E-01 -4.894511546470E-01
     36 T   8 O    -1.682605426597E-01 -4.850290523706E-01 -1.794510618554E-01
     37 T   8 O     1.694048683887E-01 -1.734046610388E-01  1.625520966421E-01
     38 T   8 O     1.612423515940E-01 -1.730633149671E-01 -4.948432030106E-01
     39 T   8 O     1.771166641842E-01 -1.671366923968E-01 -1.654879519603E-01
     40 T   8 O     1.696110217433E-01  1.695943751593E-01  1.643510404474E-01
     41 T   8 O     1.733126787091E-01  1.611522105749E-01 -4.950312931094E-01
     42 T   8 O     1.755695940624E-01  1.598451471968E-01 -1.748223343786E-01
     43 T   8 O     1.770495985522E-01  4.978661689131E-01  1.565825898332E-01
     44 T   8 O     1.617237872975E-01 -4.941340715534E-01 -4.934719802499E-01
     45 T   8 O     1.694538021809E-01  4.980166429943E-01 -1.664685554257E-01
     46 T   8 O     4.997188431627E-01 -1.637265115283E-01  1.668169731801E-01
     47 T   8 O    -4.989721986112E-01 -1.673856389373E-01 -4.859462213808E-01
     48 T   8 O     4.966747496592E-01 -1.671771754265E-01 -1.789069670685E-01
     49 T   8 O     4.998103951084E-01  1.680880642878E-01  1.535169659552E-01
     50 T   8 O    -4.892268027568E-01  1.564871966103E-01 -4.895902950133E-01
     51 T   8 O    -4.891490822749E-01  1.704615991385E-01 -1.612572719902E-01
     52 T   8 O     4.991331944189E-01 -4.983523547139E-01  1.662328231427E-01
     53 T   8 O    -4.828419972845E-01  4.832096823295E-01 -4.996907030888E-01
     54 T   8 O     4.933068796460E-01 -4.973096097186E-01 -1.599972429662E-01

 T = ATOM BELONGING TO THE ASYMMETRIC UNIT

 ****    1 SYMMOPS - TRANSLATORS IN FRACTIONAL UNITS
 **** MATRICES AND TRANSLATORS IN THE CRYSTALLOGRAPHIC REFERENCE FRAME
   V INV                    ROTATION MATRICES                   TRANSLATORS
   1   1  1.00  0.00  0.00  0.00  1.00  0.00  0.00  0.00  1.00  0.00  0.00  0.00

 DIRECT LATTICE VECTORS CARTESIAN COMPONENTS (ANGSTROM)
          X                    Y                    Z
   0.766586220880E-02   0.698941194270E+01   0.702204190162E+01
   0.701949380002E+01   0.953811242249E-02   0.702572439165E+01
   0.701311143666E+01   0.699422780228E+01   0.797735955677E-02


 CARTESIAN COORDINATES - PRIMITIVE CELL
 *******************************************************************************
 *      ATOM          X(ANGSTROM)         Y(ANGSTROM)         Z(ANGSTROM)
 *******************************************************************************
    1    20 CA   -1.657556592400E-02 -1.957497326000E-02 -3.246023088800E-02
    2    20 CA    2.371007351761E+00  2.326235994430E+00 -3.734040934500E-02
    3    20 CA   -2.330451102990E+00 -2.359323988320E+00 -3.011927516500E-02
    4    20 CA    2.331325565992E+00 -1.003605440200E-02  2.405438354351E+00
    5    20 CA    4.686614451094E+00  2.325435200162E+00  2.326743935456E+00
    6    20 CA    2.340119171900E-02 -2.343983269316E+00  2.333457593788E+00
    7    20 CA   -2.374427340232E+00 -3.709278088900E-02 -2.324684063563E+00
    8    20 CA    8.729912594000E-03  2.344906169158E+00 -2.353209536588E+00
    9    12 MG   -4.697233845448E+00 -2.438398478090E+00 -2.386707073753E+00
   10    20 CA   -3.843978723800E-02  2.329651217406E+00  2.357431239903E+00
   11    20 CA    2.344262462609E+00  4.678332058522E+00  2.359368428356E+00
   12    12 MG   -2.340307906452E+00  7.582398181400E-02  2.289261914569E+00
   13    12 MG    2.318837867218E+00  2.389182854122E+00  4.731977868349E+00
   14    20 CA    4.669160297018E+00  4.701176513313E+00  4.723083977989E+00
   15    20 CA   -1.895675318200E-02  6.785670552800E-02  4.695596943751E+00
   16    12 MG   -2.388697166070E+00  2.264315007170E+00  2.586322470006E-04
   17    20 CA   -2.382998724800E-02  4.679346017280E+00  2.077575101000E-03
   18    20 CA   -4.675668590937E+00  5.239997693700E-02 -1.480980177200E-02
   19    12 MG    4.316864487800E-02 -2.464681325462E+00 -2.298966042998E+00
   20    20 CA    2.376510907988E+00  1.416374627300E-02 -2.362295136045E+00
   21    12 MG   -2.399215798860E+00 -4.662244025503E+00 -2.333623044743E+00
   22    20 CA    2.354360218368E+00 -2.383801326692E+00  6.207398255000E-03
   23    12 MG    4.719412010956E+00  1.151225091180E-01  2.974901444300E-02
   24    12 MG   -7.707300374000E-02 -4.653632399154E+00 -8.185932925700E-02
   25    20 CA   -2.343174385928E+00 -2.390475086468E+00 -4.666286262357E+00
   26    20 CA   -3.626411640000E-03  1.056949599600E-02 -4.677606209876E+00
   27    12 MG   -4.595460727271E+00 -4.669828797105E+00 -4.638132609212E+00
   28     8 O     2.210884775000E-03 -7.632366108900E-02 -2.341147278924E+00
   29     8 O     2.407958470768E+00  2.420862423080E+00 -2.414695283573E+00
   30     8 O    -2.358158643931E+00 -2.461437820125E+00 -2.322891796821E+00
   31     8 O     2.426851098457E+00 -1.219205225000E-03  1.791305447900E-02
   32     8 O     4.749378864297E+00  2.244617067866E+00 -7.690764714400E-02
   33     8 O    -1.425091622500E-02 -2.427675601656E+00 -5.003324120000E-02
   34     8 O     4.669504948870E+00  1.638088567999E-03  2.281808140944E+00
   35     8 O     7.102418625196E+00  2.334584209887E+00  2.283551839195E+00
   36     8 O     2.355035217721E+00 -2.426252001536E+00  2.435079821162E+00
   37     8 O    -7.591834066400E-02  2.319312850769E+00 -2.742853600000E-02
   38     8 O     2.329140105500E+00  4.658520234560E+00 -7.961478665300E-02
   39     8 O    -2.332442672615E+00  7.888672479500E-02  6.814414397000E-02
   40     8 O     2.344379041060E+00  2.336607527634E+00  2.383850127245E+00
   41     8 O     4.673937347554E+00  4.744756963308E+00  2.353248225521E+00
   42     8 O    -1.026706005870E-01  5.905606928000E-03  2.354490375084E+00
   43     8 O     4.594256875293E+00  2.337395585226E+00  4.742369302028E+00
   44     8 O     7.104499948940E+00  4.677951534822E+00  4.693746559423E+00
   45     8 O     2.329661217403E+00  2.481356886400E-02  4.687511395914E+00
   46     8 O     2.445956566200E-02  4.657935120229E+00  2.360080069089E+00
   47     8 O     2.433994789248E+00  7.095702385895E+00  2.346333640758E+00
   48     8 O    -2.424386203064E+00  2.218553789120E+00  2.311702939259E+00
   49     8 O     2.260356192407E+00  4.568716618916E+00  4.691854610564E+00
   50     8 O     4.681936562763E+00  7.141418626468E+00  4.690178429210E+00
   51     8 O     6.955503260000E-02  2.444303292110E+00  4.783546357414E+00
   52     8 O     4.690948135303E+00  4.656102514983E+00  7.030698402200E+00
   53     8 O     6.904576683246E+00  7.118516422912E+00  7.030394363401E+00
   54     8 O     2.410335205996E+00  2.333662548428E+00  6.994509360145E+00
 WARNING **** CRYSTA **** TESTGEOM  DIRECTIVE - GEOMETRY EDITING COMPLETE
 TTTTTTTTTTTTTTTTTTTTTTTTTTTTTT END         TELAPSE        0.01 TCPU        0.01
 EEEEEEEEEE TERMINATION  DATE 10 03 2023 TIME 10:31:20.2
Fri 10 Mar 2023 10:31:20 GMT
Contents of temporary directory:
total 8
-rw-r--r--  1 brunocamino  admin  4027 10 Mar 10:31 fort.34
SCF abnormal end - no wf written in fort.9
geometry input file fort.34 saved as /Users/brunocamino/Desktop/Imperial/cmsg_icl/solid-solutions/./data/crystal/testgeom_opt/CaMgO_testgeom_2655.gui
temporary directory /Users/brunocamino/crystal/tmp removed
