date Fri 10 Mar 2023 10:31:57 GMT
hostname MacBook-Pro-8
system Darwin MacBook-Pro-8 21.6.0 Darwin Kernel Version 21.6.0: Mon Aug 22 20:20:05 PDT 2022; root:xnu-8020.140.49~2/RELEASE_ARM64_T8101 arm64
user brunocamino
output data in /Users/brunocamino/Desktop/Imperial/cmsg_icl/solid-solutions/./data/crystal/testgeom_opt/CaMgO_testgeom_3117.out
crystal executable in /Users/brunocamino/crystal
input data in /Users/brunocamino/Desktop/Imperial/cmsg_icl/solid-solutions/./data/crystal/testgeom_opt/CaMgO_testgeom_3117.d12
temporary directory /Users/brunocamino/crystal/tmp
external geometry input from /Users/brunocamino/Desktop/Imperial/cmsg_icl/solid-solutions/./data/crystal/testgeom_opt/CaMgO_testgeom_3117.gui
external geometry input saved in /Users/brunocamino/Desktop/Imperial/cmsg_icl/solid-solutions/./data/crystal/testgeom_opt/CaMgO_testgeom_3117_inp.gui
Bulk 
EXTERNAL
EXTPRT
TESTGEOM
END

         
 *******************************************************************************
 *                                                                             *
 *                               CRYSTAL17                                     *
 *                      public : 1.0.1 - Feb 1st, 2017                         *
 *                       HTTP://WWW.CRYSTAL.UNITO.IT                           *
 *                                                                             *
 *                              MAIN AUTHORS                                   *
 *                                                                             *
 *  R. DOVESI(1,11), V.R. SAUNDERS(2), C. ROETTI(1,11), R. ORLANDO(1,11),      *
 *  C.M. ZICOVICH-WILSON(1,3), F. PASCALE(4), B. CIVALLERI(1,11),              *
 *  K. DOLL(5), N.M. HARRISON(2,6), I.J. BUSH(7), Ph. D'ARCO(8),               *
 *  M. LLUNELL(9), M. CAUSA'(10), Y. NOEL(8), L. MASCHIO(1,11), A. ERBA(1,11)  *
 *  M. RE'RAT(14), S. CASASSA(1,11)                                            *
 *                                                                             *
 *        CONTRIBUTIONS TO THE CODE HAVE ALSO BEEN GIVEN BY                    *
 *                                                                             *
 *  M. FERRABONE(1,11), M. DE LA PIERRE(1,11), M. FERRERO(1,11),               *
 *  J. BAIMA(1,11), E. ALBANESE(1,11), M.F. PEINTINGER(12), R. BAST(13),       *
 *  B. KIRTMAN(15), V. LACIVITA(1,11), R. DEMICHELIS(1,16)                     *
 *  G. BRANDEBURG(17), S. SALUSTRO(1,11), G. SANSONE(1,11)                     *
 *  M.T. RUGGIERO(18)                                                          *
 *                                                                             *
 * (1) THEORETICAL CHEMISTRY GROUP - UNIVERSITA' DI TORINO - TORINO (ITALY)    *

 * (2) COMPUTATIONAL SCIENCE & ENGINEERING DEPARTMENT - STFC DARESBURY (UK)    *
 * (3) UNIVERSIDAD AUTONOMA DEL ESTADO DE MORELOS - CUERNAVACA (MEXICO)        *
 * (4) UNIVERSITE' DE LORRAINE - NANCY (FRANCE)                                *
 * (5) UNIVERSITAET STUTTGART- STUTTGART (GERMANY)                             *
 * (6) IMPERIAL COLLEGE - LONDON (UK)                                          *
 * (7) OXFORD E-RESEARCH CENTRE - OXFORD (UK)                                  *
 * (8) UPMC - SORBONNE UNIVERSITES - PARIS (FRANCE)                            *
 * (9) UNIVERSIDAD DE BARCELONA - BARCELONA (SPAIN)                            *
 *(10) UNIVERSITA' DI NAPOLI "FEDERICO II" - NAPOLI (ITALY)                    *
 *(11) NIS - NANOSTRUCTURED INTERFACES AND SURFACES - TORINO (ITALY)           *
 *(12) MPI FUER CHEMISCHE ENERGIEKONVERSION - MUELHEIM AN DER RUHR (GERMANY)   *
 *(13) UNIVERSITY OF TROMSO - TROMSO (NORWAY)                                  *
 *(14) UNIVERSITE' DE PAU ET DES PAYS DE L'ADOUR - PAU (FRANCE)                *
 *(15) UNIVERSITY OF CALIFORNIA SANTA BARBARA - SANTA BARBARA (USA)            *
 *(16) CURTIN UNIVERSITY - PERTH (AUSTRALIA)                                   *
 *(17) UNIVERSITY COLLEGE LONDON - LONDON (UK)                                 *
 *(18) CAMBRIDGE UNIVERSITY - CAMBRIDGE (UK)                                   *
 *                                                                             *
 *******************************************************************************
 EEEEEEEEEE STARTING  DATE 10 03 2023 TIME 10:31:57.7
 Bulk                                                                            

 GEOMETRY INPUT FROM EXTERNAL FILE (FORTRAN UNIT 34)
 3D - CRYSTAL 

 *******************************************************************************
 LATTICE PARAMETERS  (ANGSTROMS AND DEGREES) - PRIMITIVE CELL
       A          B          C        ALPHA      BETA     GAMMA        VOLUME
    9.89427    9.90950    9.92173    60.01504  60.00918  60.08648    688.446738
 INFORMATION **** CHKGRP **** SPGR WITH NO INVERSION

 NUMBER OF IRREDUCIBLE ATOMS IN THE CELL:   54

 CARTESIAN COORDINATES (ANGSTROM) - IRREDUCIBLE ATOMS AND SYMMETRY RELATED

 AT.IRR.  AT  AT.N.          X                   Y                   Z
     1     1    20    9.414855791000E-03  9.380917186000E-03 -6.488392787900E-02
     2     2    20    2.329813082466E+00  2.335444547359E+00 -7.815081126700E-02
     3     3    20   -2.349770830962E+00 -2.323637664384E+00 -4.406655462900E-02
     4     4    20    2.342922905622E+00 -3.653831830100E-02  2.364858645974E+00
     5     5    20    4.718249294423E+00  2.332005547872E+00  2.342968045746E+00
     6     6    20    2.607286417100E-02 -2.354656357132E+00  2.369290393980E+00
     7     7    20   -2.326090704799E+00 -1.613760633300E-02 -2.342014478924E+00
     8     8    12    5.640341528700E-02  2.348024250356E+00 -2.292797017218E+00
     9     9    12   -4.632604580976E+00 -2.239559041984E+00 -2.331274388604E+00
    10    10    20   -4.811118278500E-02  2.370913181914E+00  2.382283486505E+00
    11    11    20    2.325009878843E+00  4.714608389366E+00  2.331568730872E+00
    12    12    20   -2.357466427969E+00  3.449242017700E-02  2.326632096278E+00
    13    13    20    2.303519441139E+00  2.313308844446E+00  4.741641244035E+00
    14    14    20    4.703420834395E+00  4.667774152243E+00  4.673993532231E+00
    15    15    12    3.798897014100E-02 -5.818809349000E-03  4.712458192241E+00
    16    16    12   -2.246815571531E+00  2.331914854722E+00  1.997458195000E-03
    17    17    20    2.247189526400E-02  4.689133562352E+00 -7.703396418500E-02
    18    18    12   -4.723308691703E+00  4.632135850500E-02 -7.097845108700E-02
    19    19    12    6.728885210800E-02 -2.322981088373E+00 -2.299995315893E+00
    20    20    12    2.219158241283E+00 -4.535035472600E-02 -2.347300386008E+00
    21    21    20   -2.344389206865E+00 -4.661383971792E+00 -2.332983943223E+00
    22    22    20    2.349911883596E+00 -2.387780244347E+00  4.820922227000E-03
    23    23    20    4.682722615393E+00 -2.251306728600E-02  2.916990359000E-03
    24    24    12   -3.192881794400E-02 -4.709380173135E+00 -8.968294721700E-02
    25    25    12   -2.388775805432E+00 -2.346255130669E+00 -4.582995166754E+00
    26    26    20    1.444753127900E-02 -5.020455400000E-05 -4.640403303351E+00
    27    27    20   -4.689236566450E+00 -4.677028146753E+00 -4.664190271095E+00
    28    28     8    1.111087716970E-01 -4.582981693400E-02 -2.331493070096E+00
    29    29     8    2.206840597586E+00  2.306427944078E+00 -2.331663315310E+00
    30    30     8   -2.383089426823E+00 -2.339594892147E+00 -2.421004715903E+00
    31    31     8    2.317763697767E+00 -1.705892042800E-02 -4.835957432700E-02
    32    32     8    4.751793058361E+00  2.330882216141E+00 -9.325262067000E-03
    33    33     8   -1.756047712300E-02 -2.430555503816E+00 -6.945489555700E-02
    34    34     8    4.675766587624E+00 -8.462757080800E-02  2.331355373561E+00
    35    35     8    7.009007253400E+00  2.332760825748E+00  2.346692591997E+00
    36    36     8    2.446371864125E+00 -2.336502658214E+00  2.433100384006E+00
    37    37     8   -8.874687993600E-02  2.337718417840E+00 -1.262715061990E-01
    38    38     8    2.345065248476E+00  4.769083464574E+00 -1.063804614630E-01
    39    39     8   -2.409135722845E+00  1.003691065400E-01 -1.166706128700E-02
    40    40     8    2.333028675271E+00  2.337450323409E+00  2.345943427598E+00
    41    41     8    4.685492152562E+00  4.677916892903E+00  2.328498779730E+00
    42    42     8    1.129972572100E-02  2.051493929300E-02  2.400315078246E+00
    43    43     8    4.778874136561E+00  2.333742000362E+00  4.752383217282E+00
    44    44     8    7.132800305460E+00  4.687442576267E+00  4.647479677599E+00
    45    45     8    2.236833211752E+00 -8.671921393000E-02  4.738016259698E+00
    46    46     8   -5.172750491000E-02  4.671582646371E+00  2.393821387226E+00
    47    47     8    2.356730395607E+00  6.999595297756E+00  2.351916846010E+00
    48    48     8   -2.332022348074E+00  2.438060289449E+00  2.250991850198E+00
    49    49     8    2.253575998095E+00  4.738644319063E+00  4.655967528090E+00
    50    50     8    4.686829666251E+00  7.000031122331E+00  4.658118460587E+00
    51    51     8    6.906049740000E-04  2.345065072837E+00  4.776587063591E+00
    52    52     8    4.680732585745E+00  4.576188344418E+00  7.037743380462E+00
    53    53     8    7.073885468696E+00  7.102123820826E+00  6.930593698146E+00
    54    54     8    2.310024112166E+00  2.206488194348E+00  6.990291182152E+00

 SYMMETRY CHANGED DURING OLD RUN :  INFORMATION ON SPACE GROUP LOST 
 NUMBER OF SYMMETRY OPERATORS         :    1
 *******************************************************************************
 LATTICE PARAMETERS (ANGSTROMS AND DEGREES) - BOHR = 0.5291772083 ANGSTROM
 PRIMITIVE CELL - CENTRING CODE 1/0 VOLUME=   688.446738 - DENSITY  3.297 g/cm^3
         A              B              C           ALPHA      BETA       GAMMA 
     9.89426980     9.90950107     9.92172556    60.015035  60.009181  60.086480
 *******************************************************************************
 ATOMS IN THE ASYMMETRIC UNIT   54 - ATOMS IN THE UNIT CELL:   54
     ATOM                 X/A                 Y/B                 Z/C    
 *******************************************************************************
      1 T  20 CA   -4.641752524918E-03 -4.627926528361E-03  5.968893053633E-03
      2 T  20 CA   -4.723701385202E-03 -6.048074408453E-03  3.378656911849E-01
      3 T  20 CA   -1.752678271989E-03 -4.937178431642E-03 -3.297264030586E-01
      4 T  20 CA   -4.098143469078E-04  3.383174012357E-01 -4.360004663727E-03
      5 T  20 CA   -1.987215724194E-03  3.371676460372E-01  3.350908630368E-01
      6 T  20 CA   -6.449038408826E-04  3.387934809876E-01 -3.348078904355E-01
      7 T  20 CA   -2.919836760428E-03 -3.317324878723E-01  1.803787081384E-04
      8 T  12 MG   -2.347373632712E-04 -3.269848568397E-01  3.347559603904E-01
      9 T  12 MG    3.326789870271E-03 -3.368206670333E-01 -3.232408928219E-01
     10 T  20 CA    3.432612168974E-01 -2.454490772812E-03 -4.679682027174E-03
     11 T  20 CA    3.380034622279E-01 -4.046790990399E-03  3.349022896860E-01
     12 T  20 CA    3.368863256313E-01 -4.426998162250E-03 -3.316085044879E-01
     13 T  20 CA    3.403320156808E-01  3.375926985718E-01 -9.525853964145E-03
     14 T  20 CA    3.327242717293E-01  3.359326530588E-01  3.339398571954E-01
     15 T  12 MG    3.339631975369E-01  3.393990953698E-01 -3.339889059835E-01
     16 T  12 MG    3.268924695937E-01 -3.262106196224E-01  5.684429274494E-03
     17 T  20 CA    3.279748823044E-01 -3.381869211347E-01  3.408486256407E-01
     18 T  12 MG    3.348208880067E-01 -3.449532495489E-01 -3.283036416825E-01
     19 T  12 MG   -3.353164563620E-01  6.276011845275E-03  3.586081594725E-03
     20 T  12 MG   -3.292846708823E-01 -6.129735347273E-03  3.224523240344E-01
     21 T  20 CA   -3.329202733847E-01 -1.229582061701E-03 -3.323943545180E-01
     22 T  20 CA   -3.377436492648E-01  3.380265608192E-01 -2.798770794069E-03
     23 T  20 CA   -3.350958301535E-01  3.355069420576E-01  3.319622135627E-01
     24 T  12 MG   -3.406732021183E-01  3.270596260118E-01 -3.310667750405E-01
     25 T  12 MG   -3.252628185162E-01 -3.299985069495E-01 -1.021699692649E-02
     26 T  20 CA   -3.329651308601E-01 -3.301022532875E-01  3.321668609255E-01
     27 T  20 CA   -3.336951144076E-01 -3.335625974195E-01 -3.342870562322E-01
     28 T   8 O    -1.779664194425E-01 -1.551885146727E-01  1.710336959658E-01
     29 T   8 O    -1.592297540739E-01 -1.735513646703E-01  4.878466262229E-01
     30 T   8 O    -1.705430768972E-01 -1.757902395639E-01 -1.636179664828E-01
     31 T   8 O    -1.698444935823E-01  1.629305693435E-01  1.674411758012E-01
     32 T   8 O    -1.727193948760E-01  1.717803585533E-01 -4.947377788100E-01
     33 T   8 O    -1.774048426825E-01  1.670681746082E-01 -1.692904610299E-01
     34 T   8 O    -1.724836740461E-01 -4.944051151830E-01  1.608872961442E-01
     35 T   8 O    -1.649086240468E-01 -4.993795358785E-01  4.981583260335E-01
     36 T   8 O    -1.672562837346E-01 -4.854752193575E-01 -1.655564477687E-01
     37 T   8 O     1.643457802948E-01 -1.819921678334E-01  1.690725447115E-01
     38 T   8 O     1.660785166981E-01 -1.804712482209E-01 -4.858181159104E-01
     39 T   8 O     1.780153680072E-01 -1.796644841098E-01 -1.637408114003E-01
     40 T   8 O     1.685880090490E-01  1.670194539579E-01  1.652535188261E-01
     41 T   8 O     1.669514552902E-01  1.665593802000E-01 -4.992408945202E-01
     42 T   8 O     1.723573521427E-01  1.706272178919E-01 -1.690216749673E-01
     43 T   8 O     1.661641996442E-01 -4.867020916198E-01  1.675990119619E-01
     44 T   8 O     1.591131091290E-01 -4.942423882229E-01 -4.896081179508E-01
     45 T   8 O     1.733182931345E-01 -4.963186112581E-01 -1.848427238539E-01
     46 T   8 O    -4.912493976630E-01 -1.659049916560E-01  1.579896684270E-01
     47 T   8 O    -4.995157692285E-01 -1.632324573691E-01  4.983454537781E-01
     48 T   8 O    -4.985779469347E-01 -1.793632874624E-01 -1.533229332510E-01
     49 T   8 O    -4.889222479734E-01  1.550164399347E-01  1.656515872748E-01
     50 T   8 O     4.994346353686E-01  1.673494964921E-01  4.998888365092E-01
     51 T   8 O    -4.907969888477E-01  1.737214224291E-01 -1.738992175515E-01
     52 T   8 O     4.968773552888E-01 -4.904796678335E-01  1.571261250537E-01
     53 T   8 O     4.991782051620E-01  4.923363419780E-01 -4.848658950654E-01
     54 T   8 O     4.930829015131E-01 -4.938666500618E-01 -1.771295637970E-01

 T = ATOM BELONGING TO THE ASYMMETRIC UNIT
 *******************************************************************************
 * GEOMETRY EDITING - INPUT COORDINATES ARE GIVEN IN ANGSTROM         
 *******************************************************************************

 GCALCO - MAX INDICES DIRECT LATTICE VECTOR    15    14    14
 NO.OF VECTORS CREATED 6999 STARS 3500 RMAX   198.34366 BOHR

 GEOMETRY FOR WAVE FUNCTION - DIMENSIONALITY OF THE SYSTEM    3
 (NON PERIODIC DIRECTION: LATTICE PARAMETER FORMALLY SET TO 500)
 *******************************************************************************
 LATTICE PARAMETERS (ANGSTROMS AND DEGREES) - BOHR = 0.5291772083 ANGSTROM
 PRIMITIVE CELL - CENTRING CODE 1/0 VOLUME=   688.446738 - DENSITY  3.297 g/cm^3
         A              B              C           ALPHA      BETA       GAMMA 
     9.89426980     9.90950107     9.92172556    60.015035  60.009181  60.086480
 *******************************************************************************
 ATOMS IN THE ASYMMETRIC UNIT   54 - ATOMS IN THE UNIT CELL:   54
     ATOM                 X/A                 Y/B                 Z/C    
 *******************************************************************************
      1 T  20 CA   -4.641752524918E-03 -4.627926528361E-03  5.968893053633E-03
      2 T  20 CA   -4.723701385202E-03 -6.048074408453E-03  3.378656911849E-01
      3 T  20 CA   -1.752678271989E-03 -4.937178431642E-03 -3.297264030586E-01
      4 T  20 CA   -4.098143469078E-04  3.383174012357E-01 -4.360004663727E-03
      5 T  20 CA   -1.987215724194E-03  3.371676460372E-01  3.350908630368E-01
      6 T  20 CA   -6.449038408827E-04  3.387934809876E-01 -3.348078904355E-01
      7 T  20 CA   -2.919836760428E-03 -3.317324878723E-01  1.803787081383E-04
      8 T  12 MG   -2.347373632712E-04 -3.269848568397E-01  3.347559603904E-01
      9 T  12 MG    3.326789870271E-03 -3.368206670333E-01 -3.232408928219E-01
     10 T  20 CA    3.432612168974E-01 -2.454490772812E-03 -4.679682027174E-03
     11 T  20 CA    3.380034622279E-01 -4.046790990399E-03  3.349022896860E-01
     12 T  20 CA    3.368863256313E-01 -4.426998162250E-03 -3.316085044879E-01
     13 T  20 CA    3.403320156808E-01  3.375926985718E-01 -9.525853964145E-03
     14 T  20 CA    3.327242717293E-01  3.359326530588E-01  3.339398571954E-01
     15 T  12 MG    3.339631975369E-01  3.393990953698E-01 -3.339889059835E-01
     16 T  12 MG    3.268924695937E-01 -3.262106196224E-01  5.684429274494E-03
     17 T  20 CA    3.279748823044E-01 -3.381869211347E-01  3.408486256407E-01
     18 T  12 MG    3.348208880067E-01 -3.449532495489E-01 -3.283036416825E-01
     19 T  12 MG   -3.353164563620E-01  6.276011845275E-03  3.586081594725E-03
     20 T  12 MG   -3.292846708823E-01 -6.129735347273E-03  3.224523240344E-01
     21 T  20 CA   -3.329202733847E-01 -1.229582061701E-03 -3.323943545180E-01
     22 T  20 CA   -3.377436492648E-01  3.380265608192E-01 -2.798770794069E-03
     23 T  20 CA   -3.350958301535E-01  3.355069420576E-01  3.319622135627E-01
     24 T  12 MG   -3.406732021183E-01  3.270596260118E-01 -3.310667750405E-01
     25 T  12 MG   -3.252628185162E-01 -3.299985069495E-01 -1.021699692649E-02
     26 T  20 CA   -3.329651308601E-01 -3.301022532875E-01  3.321668609255E-01
     27 T  20 CA   -3.336951144076E-01 -3.335625974195E-01 -3.342870562322E-01
     28 T   8 O    -1.779664194425E-01 -1.551885146727E-01  1.710336959658E-01
     29 T   8 O    -1.592297540739E-01 -1.735513646703E-01  4.878466262229E-01
     30 T   8 O    -1.705430768972E-01 -1.757902395639E-01 -1.636179664828E-01
     31 T   8 O    -1.698444935823E-01  1.629305693435E-01  1.674411758012E-01
     32 T   8 O    -1.727193948760E-01  1.717803585533E-01 -4.947377788100E-01
     33 T   8 O    -1.774048426825E-01  1.670681746082E-01 -1.692904610299E-01
     34 T   8 O    -1.724836740461E-01 -4.944051151830E-01  1.608872961442E-01
     35 T   8 O    -1.649086240468E-01 -4.993795358785E-01  4.981583260335E-01
     36 T   8 O    -1.672562837346E-01 -4.854752193575E-01 -1.655564477687E-01
     37 T   8 O     1.643457802948E-01 -1.819921678334E-01  1.690725447115E-01
     38 T   8 O     1.660785166981E-01 -1.804712482209E-01 -4.858181159104E-01
     39 T   8 O     1.780153680072E-01 -1.796644841098E-01 -1.637408114003E-01
     40 T   8 O     1.685880090490E-01  1.670194539579E-01  1.652535188261E-01
     41 T   8 O     1.669514552902E-01  1.665593802000E-01 -4.992408945202E-01
     42 T   8 O     1.723573521427E-01  1.706272178919E-01 -1.690216749673E-01
     43 T   8 O     1.661641996442E-01 -4.867020916198E-01  1.675990119619E-01
     44 T   8 O     1.591131091290E-01 -4.942423882229E-01 -4.896081179508E-01
     45 T   8 O     1.733182931345E-01 -4.963186112581E-01 -1.848427238539E-01
     46 T   8 O    -4.912493976630E-01 -1.659049916560E-01  1.579896684270E-01
     47 T   8 O    -4.995157692285E-01 -1.632324573691E-01  4.983454537781E-01
     48 T   8 O    -4.985779469347E-01 -1.793632874624E-01 -1.533229332510E-01
     49 T   8 O    -4.889222479734E-01  1.550164399347E-01  1.656515872748E-01
     50 T   8 O     4.994346353686E-01  1.673494964921E-01  4.998888365092E-01
     51 T   8 O    -4.907969888477E-01  1.737214224291E-01 -1.738992175515E-01
     52 T   8 O     4.968773552888E-01 -4.904796678335E-01  1.571261250537E-01
     53 T   8 O     4.991782051620E-01  4.923363419780E-01 -4.848658950654E-01
     54 T   8 O     4.930829015131E-01 -4.938666500618E-01 -1.771295637970E-01

 T = ATOM BELONGING TO THE ASYMMETRIC UNIT

 ****    1 SYMMOPS - TRANSLATORS IN FRACTIONAL UNITS
 **** MATRICES AND TRANSLATORS IN THE CRYSTALLOGRAPHIC REFERENCE FRAME
   V INV                    ROTATION MATRICES                   TRANSLATORS
   1   1  1.00  0.00  0.00  0.00  1.00  0.00  0.00  0.00  1.00  0.00  0.00  0.00

 DIRECT LATTICE VECTORS CARTESIAN COMPONENTS (ANGSTROM)
          X                    Y                    Z
   0.572883790929E-02   0.700252607676E+01   0.699007658215E+01
   0.701571466112E+01  -0.917654112933E-02   0.699841946089E+01
   0.702134537474E+01   0.701008403895E+01  -0.830156853855E-02


 CARTESIAN COORDINATES - PRIMITIVE CELL
 *******************************************************************************
 *      ATOM          X(ANGSTROM)         Y(ANGSTROM)         Z(ANGSTROM)
 *******************************************************************************
    1    20 CA    9.414855791000E-03  9.380917186000E-03 -6.488392787900E-02
    2    20 CA    2.329813082466E+00  2.335444547359E+00 -7.815081126700E-02
    3    20 CA   -2.349770830962E+00 -2.323637664384E+00 -4.406655462900E-02
    4    20 CA    2.342922905622E+00 -3.653831830100E-02  2.364858645974E+00
    5    20 CA    4.718249294423E+00  2.332005547872E+00  2.342968045746E+00
    6    20 CA    2.607286417100E-02 -2.354656357132E+00  2.369290393980E+00
    7    20 CA   -2.326090704799E+00 -1.613760633300E-02 -2.342014478924E+00
    8    12 MG    5.640341528700E-02  2.348024250356E+00 -2.292797017218E+00
    9    12 MG   -4.632604580976E+00 -2.239559041984E+00 -2.331274388604E+00
   10    20 CA   -4.811118278500E-02  2.370913181914E+00  2.382283486505E+00
   11    20 CA    2.325009878843E+00  4.714608389366E+00  2.331568730872E+00
   12    20 CA   -2.357466427969E+00  3.449242017700E-02  2.326632096278E+00
   13    20 CA    2.303519441139E+00  2.313308844446E+00  4.741641244035E+00
   14    20 CA    4.703420834395E+00  4.667774152243E+00  4.673993532231E+00
   15    12 MG    3.798897014100E-02 -5.818809349000E-03  4.712458192241E+00
   16    12 MG   -2.246815571531E+00  2.331914854722E+00  1.997458194999E-03
   17    20 CA    2.247189526400E-02  4.689133562352E+00 -7.703396418500E-02
   18    12 MG   -4.723308691703E+00  4.632135850500E-02 -7.097845108700E-02
   19    12 MG    6.728885210800E-02 -2.322981088373E+00 -2.299995315893E+00
   20    12 MG    2.219158241283E+00 -4.535035472600E-02 -2.347300386008E+00
   21    20 CA   -2.344389206865E+00 -4.661383971792E+00 -2.332983943223E+00
   22    20 CA    2.349911883596E+00 -2.387780244347E+00  4.820922227000E-03
   23    20 CA    4.682722615393E+00 -2.251306728600E-02  2.916990359001E-03
   24    12 MG   -3.192881794400E-02 -4.709380173135E+00 -8.968294721700E-02
   25    12 MG   -2.388775805432E+00 -2.346255130669E+00 -4.582995166754E+00
   26    20 CA    1.444753127900E-02 -5.020455399978E-05 -4.640403303351E+00
   27    20 CA   -4.689236566450E+00 -4.677028146753E+00 -4.664190271095E+00
   28     8 O     1.111087716970E-01 -4.582981693400E-02 -2.331493070096E+00
   29     8 O     2.206840597586E+00  2.306427944078E+00 -2.331663315310E+00
   30     8 O    -2.383089426823E+00 -2.339594892147E+00 -2.421004715903E+00
   31     8 O     2.317763697767E+00 -1.705892042800E-02 -4.835957432700E-02
   32     8 O     4.751793058361E+00  2.330882216141E+00 -9.325262067000E-03
   33     8 O    -1.756047712300E-02 -2.430555503816E+00 -6.945489555700E-02
   34     8 O     4.675766587624E+00 -8.462757080800E-02  2.331355373561E+00
   35     8 O     7.009007253400E+00  2.332760825748E+00  2.346692591997E+00
   36     8 O     2.446371864125E+00 -2.336502658214E+00  2.433100384006E+00
   37     8 O    -8.874687993600E-02  2.337718417840E+00 -1.262715061990E-01
   38     8 O     2.345065248476E+00  4.769083464574E+00 -1.063804614630E-01
   39     8 O    -2.409135722845E+00  1.003691065400E-01 -1.166706128700E-02
   40     8 O     2.333028675271E+00  2.337450323409E+00  2.345943427598E+00
   41     8 O     4.685492152562E+00  4.677916892903E+00  2.328498779730E+00
   42     8 O     1.129972572100E-02  2.051493929300E-02  2.400315078246E+00
   43     8 O     4.778874136561E+00  2.333742000362E+00  4.752383217282E+00
   44     8 O     7.132800305460E+00  4.687442576267E+00  4.647479677599E+00
   45     8 O     2.236833211752E+00 -8.671921393000E-02  4.738016259698E+00
   46     8 O    -5.172750491000E-02  4.671582646371E+00  2.393821387226E+00
   47     8 O     2.356730395607E+00  6.999595297756E+00  2.351916846010E+00
   48     8 O    -2.332022348074E+00  2.438060289449E+00  2.250991850198E+00
   49     8 O     2.253575998095E+00  4.738644319063E+00  4.655967528090E+00
   50     8 O     4.686829666251E+00  7.000031122331E+00  4.658118460587E+00
   51     8 O     6.906049740004E-04  2.345065072837E+00  4.776587063591E+00
   52     8 O     4.680732585745E+00  4.576188344418E+00  7.037743380462E+00
   53     8 O     7.073885468696E+00  7.102123820826E+00  6.930593698146E+00
   54     8 O     2.310024112166E+00  2.206488194348E+00  6.990291182152E+00
 WARNING **** CRYSTA **** TESTGEOM  DIRECTIVE - GEOMETRY EDITING COMPLETE
 TTTTTTTTTTTTTTTTTTTTTTTTTTTTTT END         TELAPSE        0.01 TCPU        0.01
 EEEEEEEEEE TERMINATION  DATE 10 03 2023 TIME 10:31:57.7
Fri 10 Mar 2023 10:31:57 GMT
Contents of temporary directory:
total 8
-rw-r--r--  1 brunocamino  admin  4027 10 Mar 10:31 fort.34
SCF abnormal end - no wf written in fort.9
geometry input file fort.34 saved as /Users/brunocamino/Desktop/Imperial/cmsg_icl/solid-solutions/./data/crystal/testgeom_opt/CaMgO_testgeom_3117.gui
temporary directory /Users/brunocamino/crystal/tmp removed
