date Fri 10 Mar 2023 10:32:38 GMT
hostname MacBook-Pro-8
system Darwin MacBook-Pro-8 21.6.0 Darwin Kernel Version 21.6.0: Mon Aug 22 20:20:05 PDT 2022; root:xnu-8020.140.49~2/RELEASE_ARM64_T8101 arm64
user brunocamino
output data in /Users/brunocamino/Desktop/Imperial/cmsg_icl/solid-solutions/./data/crystal/testgeom_opt/CaMgO_testgeom_3637.out
crystal executable in /Users/brunocamino/crystal
input data in /Users/brunocamino/Desktop/Imperial/cmsg_icl/solid-solutions/./data/crystal/testgeom_opt/CaMgO_testgeom_3637.d12
temporary directory /Users/brunocamino/crystal/tmp
external geometry input from /Users/brunocamino/Desktop/Imperial/cmsg_icl/solid-solutions/./data/crystal/testgeom_opt/CaMgO_testgeom_3637.gui
external geometry input saved in /Users/brunocamino/Desktop/Imperial/cmsg_icl/solid-solutions/./data/crystal/testgeom_opt/CaMgO_testgeom_3637_inp.gui
Bulk 
EXTERNAL
EXTPRT
TESTGEOM
END

         
 *******************************************************************************
 *                                                                             *
 *                               CRYSTAL17                                     *
 *                      public : 1.0.1 - Feb 1st, 2017                         *
 *                       HTTP://WWW.CRYSTAL.UNITO.IT                           *
 *                                                                             *
 *                              MAIN AUTHORS                                   *
 *                                                                             *
 *  R. DOVESI(1,11), V.R. SAUNDERS(2), C. ROETTI(1,11), R. ORLANDO(1,11),      *
 *  C.M. ZICOVICH-WILSON(1,3), F. PASCALE(4), B. CIVALLERI(1,11),              *
 *  K. DOLL(5), N.M. HARRISON(2,6), I.J. BUSH(7), Ph. D'ARCO(8),               *
 *  M. LLUNELL(9), M. CAUSA'(10), Y. NOEL(8), L. MASCHIO(1,11), A. ERBA(1,11)  *
 *  M. RE'RAT(14), S. CASASSA(1,11)                                            *
 *                                                                             *
 *        CONTRIBUTIONS TO THE CODE HAVE ALSO BEEN GIVEN BY                    *
 *                                                                             *
 *  M. FERRABONE(1,11), M. DE LA PIERRE(1,11), M. FERRERO(1,11),               *
 *  J. BAIMA(1,11), E. ALBANESE(1,11), M.F. PEINTINGER(12), R. BAST(13),       *
 *  B. KIRTMAN(15), V. LACIVITA(1,11), R. DEMICHELIS(1,16)                     *
 *  G. BRANDEBURG(17), S. SALUSTRO(1,11), G. SANSONE(1,11)                     *
 *  M.T. RUGGIERO(18)                                                          *
 *                                                                             *
 * (1) THEORETICAL CHEMISTRY GROUP - UNIVERSITA' DI TORINO - TORINO (ITALY)    *

 * (2) COMPUTATIONAL SCIENCE & ENGINEERING DEPARTMENT - STFC DARESBURY (UK)    *
 * (3) UNIVERSIDAD AUTONOMA DEL ESTADO DE MORELOS - CUERNAVACA (MEXICO)        *
 * (4) UNIVERSITE' DE LORRAINE - NANCY (FRANCE)                                *
 * (5) UNIVERSITAET STUTTGART- STUTTGART (GERMANY)                             *
 * (6) IMPERIAL COLLEGE - LONDON (UK)                                          *
 * (7) OXFORD E-RESEARCH CENTRE - OXFORD (UK)                                  *
 * (8) UPMC - SORBONNE UNIVERSITES - PARIS (FRANCE)                            *
 * (9) UNIVERSIDAD DE BARCELONA - BARCELONA (SPAIN)                            *
 *(10) UNIVERSITA' DI NAPOLI "FEDERICO II" - NAPOLI (ITALY)                    *
 *(11) NIS - NANOSTRUCTURED INTERFACES AND SURFACES - TORINO (ITALY)           *
 *(12) MPI FUER CHEMISCHE ENERGIEKONVERSION - MUELHEIM AN DER RUHR (GERMANY)   *
 *(13) UNIVERSITY OF TROMSO - TROMSO (NORWAY)                                  *
 *(14) UNIVERSITE' DE PAU ET DES PAYS DE L'ADOUR - PAU (FRANCE)                *
 *(15) UNIVERSITY OF CALIFORNIA SANTA BARBARA - SANTA BARBARA (USA)            *
 *(16) CURTIN UNIVERSITY - PERTH (AUSTRALIA)                                   *
 *(17) UNIVERSITY COLLEGE LONDON - LONDON (UK)                                 *
 *(18) CAMBRIDGE UNIVERSITY - CAMBRIDGE (UK)                                   *
 *                                                                             *
 *******************************************************************************
 EEEEEEEEEE STARTING  DATE 10 03 2023 TIME 10:32:39.0
 Bulk                                                                            

 GEOMETRY INPUT FROM EXTERNAL FILE (FORTRAN UNIT 34)
 3D - CRYSTAL 

 *******************************************************************************
 LATTICE PARAMETERS  (ANGSTROMS AND DEGREES) - PRIMITIVE CELL
       A          B          C        ALPHA      BETA     GAMMA        VOLUME
    9.93174    9.91767    9.88766    60.17127  60.03251  59.86954    689.045035
 INFORMATION **** CHKGRP **** SPGR WITH NO INVERSION

 NUMBER OF IRREDUCIBLE ATOMS IN THE CELL:   54

 CARTESIAN COORDINATES (ANGSTROM) - IRREDUCIBLE ATOMS AND SYMMETRY RELATED

 AT.IRR.  AT  AT.N.          X                   Y                   Z
     1     1    20    3.786322361500E-02  7.683029968000E-03 -3.384968069900E-02
     2     2    20    2.342980068192E+00  2.336260848834E+00 -5.329608798200E-02
     3     3    20   -2.354752799786E+00 -2.382042303457E+00  8.868667220000E-04
     4     4    20    2.344736117222E+00 -4.441989257800E-02  2.328892783507E+00
     5     5    20    4.674815454610E+00  2.329991533193E+00  2.329707383473E+00
     6     6    20    3.693942880000E-02 -2.388015813040E+00  2.351481204912E+00
     7     7    20   -2.323113347379E+00  1.598722833200E-02 -2.308476034168E+00
     8     8    12    3.362550110200E-02  2.344927128779E+00 -2.312453370980E+00
     9     9    12   -4.664318636472E+00 -2.386585186547E+00 -2.347899507136E+00
    10    10    20   -2.489319453000E-03  2.362395673458E+00  2.335796122568E+00
    11    11    12    2.323878429587E+00  4.713321845473E+00  2.384382496982E+00
    12    12    20   -2.363077843978E+00  1.455112632500E-02  2.354509317881E+00
    13    13    20    2.338659251024E+00  2.387778896549E+00  4.717608903104E+00
    14    14    20    4.638309979326E+00  4.680032302787E+00  4.746858804411E+00
    15    15    20   -3.350773001200E-02  1.710915049300E-02  4.712244175005E+00
    16    16    12   -2.308130319736E+00  2.343644264426E+00 -3.293466215300E-02
    17    17    20   -1.525655296800E-02  4.660828347866E+00 -4.353514696700E-02
    18    18    20   -4.674383450749E+00  1.896269796800E-02  3.898670709000E-03
    19    19    20    2.277567528100E-02 -2.345699258408E+00 -2.311705352642E+00
    20    20    12    2.375288694826E+00 -6.982064943500E-02 -2.295794169612E+00
    21    21    12   -2.402123684477E+00 -4.678582741370E+00 -2.339277391992E+00
    22    22    12    2.377152188782E+00 -2.373535690449E+00 -1.547525599500E-02
    23    23    12    4.657935557780E+00  7.320941929700E-02 -6.501666808900E-02
    24    24    12   -1.219709151790E-01 -4.676903152178E+00 -1.113537969850E-01
    25    25    20   -2.359017263543E+00 -2.351065614050E+00 -4.718763135460E+00
    26    26    20    1.152609709600E-02  2.439368834600E-02 -4.674421489212E+00
    27    27    20   -4.663154001004E+00 -4.654283852513E+00 -4.676841264925E+00
    28    28     8    1.195896851930E-01  1.133081831090E-01 -2.330368824622E+00
    29    29     8    2.335516730343E+00  2.383812846550E+00 -2.346060152469E+00
    30    30     8   -2.440625639498E+00 -2.428973264619E+00 -2.312017266970E+00
    31    31     8    2.450189628061E+00 -1.005464730980E-01 -9.721398547200E-02
    32    32     8    4.741552986923E+00  2.235806786082E+00 -9.407942628600E-02
    33    33     8    6.960435993400E-02 -2.440447830739E+00  2.064430554900E-02
    34    34     8    4.658899245233E+00 -3.867772750000E-03  2.322714193929E+00
    35    35     8    6.981701908143E+00  2.319887249043E+00  2.366321889771E+00
    36    36     8    2.336494001536E+00 -2.339128819189E+00  2.344074577128E+00
    37    37     8   -7.763034345000E-02  2.336932846372E+00 -7.561205796200E-02
    38    38     8    2.316144451335E+00  4.675228551306E+00 -2.161795724300E-02
    39    39     8   -2.328053060402E+00  6.673177297600E-02 -1.653061442800E-02
    40    40     8    2.334297943767E+00  2.403501383178E+00  2.356645856743E+00
    41    41     8    4.546059518929E+00  4.664108986885E+00  2.358714630612E+00
    42    42     8   -1.221844050000E-04 -1.492727779000E-03  2.346279373672E+00
    43    43     8    4.758615352710E+00  2.334464786199E+00  4.735286112432E+00
    44    44     8    7.083404754902E+00  4.582600854720E+00  4.695505089510E+00
    45    45     8    2.319697688830E+00 -5.938903707100E-02  4.704901140659E+00
    46    46     8    8.559668511800E-02  4.679938154199E+00  2.362081585464E+00
    47    47     8    2.325945186787E+00  6.877977056342E+00  2.418809164767E+00
    48    48     8   -2.314331479610E+00  2.332477425525E+00  2.328966166684E+00
    49    49     8    2.331871624961E+00  4.762968116001E+00  4.705749081701E+00
    50    50     8    4.550100855429E+00  7.124214905893E+00  4.753558324897E+00
    51    51     8   -7.072177050500E-02  2.332861093317E+00  4.773924106041E+00
    52    52     8    4.565985940317E+00  4.637859833063E+00  7.030395561970E+00
    53    53     8    6.876782453972E+00  7.104124030572E+00  7.049259276064E+00
    54    54     8    2.385555430118E+00  2.422787952292E+00  7.033216632669E+00

 SYMMETRY CHANGED DURING OLD RUN :  INFORMATION ON SPACE GROUP LOST 
 NUMBER OF SYMMETRY OPERATORS         :    1
 *******************************************************************************
 LATTICE PARAMETERS (ANGSTROMS AND DEGREES) - BOHR = 0.5291772083 ANGSTROM
 PRIMITIVE CELL - CENTRING CODE 1/0 VOLUME=   689.045035 - DENSITY  3.294 g/cm^3
         A              B              C           ALPHA      BETA       GAMMA 
     9.93173546     9.91766616     9.88765836    60.171274  60.032508  59.869541
 *******************************************************************************
 ATOMS IN THE ASYMMETRIC UNIT   54 - ATOMS IN THE UNIT CELL:   54
     ATOM                 X/A                 Y/B                 Z/C    
 *******************************************************************************
      1 T  20 CA   -4.563812582467E-03 -2.483473533056E-04  5.668054519352E-03
      2 T  20 CA   -4.648646956688E-03 -3.027659372206E-03  3.384727444240E-01
      3 T  20 CA   -1.499062205801E-03  1.727464838481E-03 -3.388590107204E-01
      4 T  20 CA   -5.231481979615E-03  3.362082287342E-01 -7.293925409574E-04
      5 T  20 CA   -2.392252001081E-03  3.333830856125E-01  3.356958908436E-01
      6 T  20 CA   -5.802696558502E-03  3.400906000195E-01 -3.350217134584E-01
      7 T  20 CA    3.109721862588E-03 -3.311842243002E-01 -1.202719102471E-03
      8 T  12 MG    4.607291017881E-04 -3.292016433571E-01  3.342270005945E-01
      9 T  12 MG   -3.686244085415E-03 -3.298891633919E-01 -3.376909955019E-01
     10 T  20 CA    3.346299007366E-01 -2.686561064674E-03  2.429441031991E-03
     11 T  12 MG    3.394548207866E-01 -7.066584368912E-04  3.335157887429E-01
     12 T  20 CA    3.372532723619E-01 -2.548490077519E-03 -3.356734558564E-01
     13 T  20 CA    3.383930714084E-01  3.320472209214E-01  2.664433589329E-03
     14 T  20 CA    3.395695253354E-01  3.349291122657E-01  3.290220743253E-01
     15 T  20 CA    3.385052045463E-01  3.312749628826E-01 -3.361859705611E-01
     16 T  12 MG    3.297316622941E-01 -3.344266803892E-01  4.282155072681E-03
     17 T  20 CA    3.303380493587E-01 -3.366393810763E-01  3.347672302129E-01
     18 T  20 CA    3.356992809612E-01 -3.350577896247E-01 -3.338610953305E-01
     19 T  20 CA   -3.331771023427E-01  4.657142066579E-03 -1.496463958655E-03
     20 T  12 MG   -3.378941921072E-01  1.153607026844E-02  3.284281543994E-01
     21 T  12 MG   -3.281801503358E-01 -4.156326390050E-03 -3.398487738432E-01
     22 T  12 MG   -3.402363553175E-01  3.380500095809E-01  1.970992585712E-03
     23 T  12 MG   -3.322949635542E-01  3.229644595405E-01  3.436083260595E-01
     24 T  12 MG   -3.326845300863E-01  3.169735232327E-01 -3.347363072830E-01
     25 T  20 CA   -3.344022980154E-01 -3.362025655804E-01 -1.419918444351E-03
     26 T  20 CA   -3.312868555814E-01 -3.331179427660E-01  3.348851255780E-01
     27 T  20 CA   -3.309819486376E-01 -3.335648311995E-01 -3.339416455976E-01
     28 T   8 O    -1.660824053111E-01 -1.651521150975E-01  1.823312382066E-01
     29 T   8 O    -1.636670554017E-01 -1.698947868746E-01 -4.956680297149E-01
     30 T   8 O    -1.630821306996E-01 -1.654338553376E-01 -1.839320410511E-01
     31 T   8 O    -1.891891109963E-01  1.753279193956E-01  1.752982137060E-01
     32 T   8 O    -1.861317901152E-01  1.726160910565E-01 -4.939327941143E-01
     33 T   8 O    -1.775241566204E-01  1.805166856132E-01 -1.707189148249E-01
     34 T   8 O    -1.681682235678E-01  4.982223070255E-01  1.684239348654E-01
     35 T   8 O    -1.653797848657E-01 -4.984682290729E-01  4.976688617534E-01
     36 T   8 O    -1.671883439794E-01 -4.996208933027E-01 -1.662327630725E-01
     37 T   8 O     1.668101385108E-01 -1.776128927630E-01  1.666610566553E-01
     38 T   8 O     1.663012922185E-01 -1.695315488992E-01 -4.987088356183E-01
     39 T   8 O     1.699654373471E-01 -1.722729277826E-01 -1.608744735365E-01
     40 T   8 O     1.720365784293E-01  1.628253596461E-01  1.713218814324E-01
     41 T   8 O     1.753060923044E-01  1.597531949881E-01  4.910549139855E-01
     42 T   8 O     1.666480357230E-01  1.668429758151E-01 -1.669188538113E-01
     43 T   8 O     1.628977197910E-01 -4.899890183150E-01  1.710005735938E-01
     44 T   8 O     1.542258570707E-01 -4.870699918727E-01 -4.990827112212E-01
     45 T   8 O     1.643491187868E-01 -4.956550022307E-01 -1.725092732414E-01
     46 T   8 O     4.954556128649E-01 -1.598343524789E-01  1.723361436097E-01
     47 T   8 O     4.961050905698E-01 -1.525165027971E-01  4.857645275081E-01
     48 T   8 O     4.972345246481E-01 -1.662178084679E-01 -1.648735483788E-01
     49 T   8 O    -4.926011611060E-01  1.612979286061E-01  1.726006825987E-01
     50 T   8 O    -4.793670836645E-01  1.547599951460E-01  4.967305852059E-01
     51 T   8 O    -4.893263619641E-01  1.678176789102E-01 -1.779016332903E-01
     52 T   8 O    -4.959819798646E-01  4.950559877341E-01  1.584858446523E-01
     53 T   8 O    -4.839323354844E-01  4.855839821524E-01  4.988042148181E-01
     54 T   8 O    -4.978962210293E-01  4.974662036198E-01 -1.560987504960E-01

 T = ATOM BELONGING TO THE ASYMMETRIC UNIT
 *******************************************************************************
 * GEOMETRY EDITING - INPUT COORDINATES ARE GIVEN IN ANGSTROM         
 *******************************************************************************

 GCALCO - MAX INDICES DIRECT LATTICE VECTOR    14    14    15
 NO.OF VECTORS CREATED 6999 STARS 3500 RMAX   198.49896 BOHR

 GEOMETRY FOR WAVE FUNCTION - DIMENSIONALITY OF THE SYSTEM    3
 (NON PERIODIC DIRECTION: LATTICE PARAMETER FORMALLY SET TO 500)
 *******************************************************************************
 LATTICE PARAMETERS (ANGSTROMS AND DEGREES) - BOHR = 0.5291772083 ANGSTROM
 PRIMITIVE CELL - CENTRING CODE 1/0 VOLUME=   689.045035 - DENSITY  3.294 g/cm^3
         A              B              C           ALPHA      BETA       GAMMA 
     9.93173546     9.91766616     9.88765836    60.171274  60.032508  59.869541
 *******************************************************************************
 ATOMS IN THE ASYMMETRIC UNIT   54 - ATOMS IN THE UNIT CELL:   54
     ATOM                 X/A                 Y/B                 Z/C    
 *******************************************************************************
      1 T  20 CA   -4.563812582467E-03 -2.483473533056E-04  5.668054519352E-03
      2 T  20 CA   -4.648646956688E-03 -3.027659372206E-03  3.384727444240E-01
      3 T  20 CA   -1.499062205801E-03  1.727464838481E-03 -3.388590107204E-01
      4 T  20 CA   -5.231481979615E-03  3.362082287342E-01 -7.293925409573E-04
      5 T  20 CA   -2.392252001081E-03  3.333830856125E-01  3.356958908436E-01
      6 T  20 CA   -5.802696558502E-03  3.400906000195E-01 -3.350217134584E-01
      7 T  20 CA    3.109721862588E-03 -3.311842243002E-01 -1.202719102471E-03
      8 T  12 MG    4.607291017881E-04 -3.292016433571E-01  3.342270005945E-01
      9 T  12 MG   -3.686244085415E-03 -3.298891633919E-01 -3.376909955019E-01
     10 T  20 CA    3.346299007366E-01 -2.686561064674E-03  2.429441031991E-03
     11 T  12 MG    3.394548207866E-01 -7.066584368911E-04  3.335157887429E-01
     12 T  20 CA    3.372532723619E-01 -2.548490077519E-03 -3.356734558564E-01
     13 T  20 CA    3.383930714084E-01  3.320472209214E-01  2.664433589330E-03
     14 T  20 CA    3.395695253354E-01  3.349291122657E-01  3.290220743253E-01
     15 T  20 CA    3.385052045463E-01  3.312749628826E-01 -3.361859705611E-01
     16 T  12 MG    3.297316622941E-01 -3.344266803892E-01  4.282155072681E-03
     17 T  20 CA    3.303380493587E-01 -3.366393810763E-01  3.347672302129E-01
     18 T  20 CA    3.356992809612E-01 -3.350577896247E-01 -3.338610953305E-01
     19 T  20 CA   -3.331771023427E-01  4.657142066579E-03 -1.496463958655E-03
     20 T  12 MG   -3.378941921072E-01  1.153607026844E-02  3.284281543994E-01
     21 T  12 MG   -3.281801503358E-01 -4.156326390051E-03 -3.398487738432E-01
     22 T  12 MG   -3.402363553175E-01  3.380500095809E-01  1.970992585712E-03
     23 T  12 MG   -3.322949635542E-01  3.229644595405E-01  3.436083260595E-01
     24 T  12 MG   -3.326845300863E-01  3.169735232327E-01 -3.347363072830E-01
     25 T  20 CA   -3.344022980154E-01 -3.362025655804E-01 -1.419918444352E-03
     26 T  20 CA   -3.312868555814E-01 -3.331179427660E-01  3.348851255780E-01
     27 T  20 CA   -3.309819486376E-01 -3.335648311995E-01 -3.339416455976E-01
     28 T   8 O    -1.660824053111E-01 -1.651521150975E-01  1.823312382066E-01
     29 T   8 O    -1.636670554017E-01 -1.698947868746E-01 -4.956680297149E-01
     30 T   8 O    -1.630821306996E-01 -1.654338553376E-01 -1.839320410511E-01
     31 T   8 O    -1.891891109963E-01  1.753279193956E-01  1.752982137060E-01
     32 T   8 O    -1.861317901152E-01  1.726160910565E-01 -4.939327941143E-01
     33 T   8 O    -1.775241566204E-01  1.805166856132E-01 -1.707189148249E-01
     34 T   8 O    -1.681682235678E-01  4.982223070255E-01  1.684239348654E-01
     35 T   8 O    -1.653797848657E-01 -4.984682290729E-01  4.976688617534E-01
     36 T   8 O    -1.671883439794E-01 -4.996208933027E-01 -1.662327630725E-01
     37 T   8 O     1.668101385108E-01 -1.776128927630E-01  1.666610566553E-01
     38 T   8 O     1.663012922185E-01 -1.695315488992E-01 -4.987088356183E-01
     39 T   8 O     1.699654373471E-01 -1.722729277826E-01 -1.608744735365E-01
     40 T   8 O     1.720365784293E-01  1.628253596461E-01  1.713218814324E-01
     41 T   8 O     1.753060923044E-01  1.597531949881E-01  4.910549139855E-01
     42 T   8 O     1.666480357230E-01  1.668429758151E-01 -1.669188538113E-01
     43 T   8 O     1.628977197910E-01 -4.899890183150E-01  1.710005735938E-01
     44 T   8 O     1.542258570707E-01 -4.870699918727E-01 -4.990827112212E-01
     45 T   8 O     1.643491187868E-01 -4.956550022307E-01 -1.725092732414E-01
     46 T   8 O     4.954556128649E-01 -1.598343524789E-01  1.723361436097E-01
     47 T   8 O     4.961050905698E-01 -1.525165027971E-01  4.857645275081E-01
     48 T   8 O     4.972345246481E-01 -1.662178084679E-01 -1.648735483788E-01
     49 T   8 O    -4.926011611060E-01  1.612979286061E-01  1.726006825987E-01
     50 T   8 O    -4.793670836645E-01  1.547599951460E-01  4.967305852059E-01
     51 T   8 O    -4.893263619641E-01  1.678176789102E-01 -1.779016332903E-01
     52 T   8 O    -4.959819798646E-01  4.950559877341E-01  1.584858446523E-01
     53 T   8 O    -4.839323354844E-01  4.855839821524E-01  4.988042148181E-01
     54 T   8 O    -4.978962210293E-01  4.974662036198E-01 -1.560987504960E-01

 T = ATOM BELONGING TO THE ASYMMETRIC UNIT

 ****    1 SYMMOPS - TRANSLATORS IN FRACTIONAL UNITS
 **** MATRICES AND TRANSLATORS IN THE CRYSTALLOGRAPHIC REFERENCE FRAME
   V INV                    ROTATION MATRICES                   TRANSLATORS
   1   1  1.00  0.00  0.00  0.00  1.00  0.00  0.00  0.00  1.00  0.00  0.00  0.00

 DIRECT LATTICE VECTORS CARTESIAN COMPONENTS (ANGSTROM)
          X                    Y                    Z
  -0.203622536972E-02   0.700885347746E+01   0.703671358755E+01
   0.698918067406E+01  -0.787759181039E-02   0.703643329083E+01
   0.698470260846E+01   0.699855076245E+01   0.212434363940E-02


 CARTESIAN COORDINATES - PRIMITIVE CELL
 *******************************************************************************
 *      ATOM          X(ANGSTROM)         Y(ANGSTROM)         Z(ANGSTROM)
 *******************************************************************************
    1    20 CA    3.786322361500E-02  7.683029968000E-03 -3.384968069900E-02
    2    20 CA    2.342980068192E+00  2.336260848834E+00 -5.329608798200E-02
    3    20 CA   -2.354752799786E+00 -2.382042303457E+00  8.868667220000E-04
    4    20 CA    2.344736117222E+00 -4.441989257800E-02  2.328892783507E+00
    5    20 CA    4.674815454610E+00  2.329991533193E+00  2.329707383473E+00
    6    20 CA    3.693942880000E-02 -2.388015813040E+00  2.351481204912E+00
    7    20 CA   -2.323113347379E+00  1.598722833200E-02 -2.308476034168E+00
    8    12 MG    3.362550110200E-02  2.344927128779E+00 -2.312453370980E+00
    9    12 MG   -4.664318636472E+00 -2.386585186547E+00 -2.347899507136E+00
   10    20 CA   -2.489319453000E-03  2.362395673458E+00  2.335796122568E+00
   11    12 MG    2.323878429587E+00  4.713321845473E+00  2.384382496982E+00
   12    20 CA   -2.363077843978E+00  1.455112632500E-02  2.354509317881E+00
   13    20 CA    2.338659251024E+00  2.387778896549E+00  4.717608903104E+00
   14    20 CA    4.638309979326E+00  4.680032302787E+00  4.746858804411E+00
   15    20 CA   -3.350773001200E-02  1.710915049300E-02  4.712244175005E+00
   16    12 MG   -2.308130319736E+00  2.343644264426E+00 -3.293466215300E-02
   17    20 CA   -1.525655296800E-02  4.660828347866E+00 -4.353514696700E-02
   18    20 CA   -4.674383450749E+00  1.896269796800E-02  3.898670709000E-03
   19    20 CA    2.277567528100E-02 -2.345699258408E+00 -2.311705352642E+00
   20    12 MG    2.375288694826E+00 -6.982064943500E-02 -2.295794169612E+00
   21    12 MG   -2.402123684477E+00 -4.678582741370E+00 -2.339277391992E+00
   22    12 MG    2.377152188782E+00 -2.373535690449E+00 -1.547525599500E-02
   23    12 MG    4.657935557780E+00  7.320941929700E-02 -6.501666808900E-02
   24    12 MG   -1.219709151790E-01 -4.676903152178E+00 -1.113537969850E-01
   25    20 CA   -2.359017263543E+00 -2.351065614050E+00 -4.718763135460E+00
   26    20 CA    1.152609709600E-02  2.439368834600E-02 -4.674421489212E+00
   27    20 CA   -4.663154001004E+00 -4.654283852513E+00 -4.676841264925E+00
   28     8 O     1.195896851930E-01  1.133081831090E-01 -2.330368824622E+00
   29     8 O     2.335516730343E+00  2.383812846550E+00 -2.346060152469E+00
   30     8 O    -2.440625639498E+00 -2.428973264619E+00 -2.312017266970E+00
   31     8 O     2.450189628061E+00 -1.005464730980E-01 -9.721398547200E-02
   32     8 O     4.741552986923E+00  2.235806786082E+00 -9.407942628600E-02
   33     8 O     6.960435993400E-02 -2.440447830739E+00  2.064430554900E-02
   34     8 O     4.658899245233E+00 -3.867772750000E-03  2.322714193929E+00
   35     8 O     6.981701908143E+00  2.319887249043E+00  2.366321889771E+00
   36     8 O     2.336494001536E+00 -2.339128819189E+00  2.344074577128E+00
   37     8 O    -7.763034345000E-02  2.336932846372E+00 -7.561205796200E-02
   38     8 O     2.316144451335E+00  4.675228551306E+00 -2.161795724300E-02
   39     8 O    -2.328053060402E+00  6.673177297600E-02 -1.653061442800E-02
   40     8 O     2.334297943767E+00  2.403501383178E+00  2.356645856743E+00
   41     8 O     4.546059518929E+00  4.664108986885E+00  2.358714630612E+00
   42     8 O    -1.221844049999E-04 -1.492727779000E-03  2.346279373672E+00
   43     8 O     4.758615352710E+00  2.334464786199E+00  4.735286112432E+00
   44     8 O     7.083404754902E+00  4.582600854720E+00  4.695505089510E+00
   45     8 O     2.319697688830E+00 -5.938903707100E-02  4.704901140659E+00
   46     8 O     8.559668511800E-02  4.679938154199E+00  2.362081585464E+00
   47     8 O     2.325945186787E+00  6.877977056342E+00  2.418809164767E+00
   48     8 O    -2.314331479610E+00  2.332477425525E+00  2.328966166684E+00
   49     8 O     2.331871624961E+00  4.762968116001E+00  4.705749081701E+00
   50     8 O     4.550100855429E+00  7.124214905893E+00  4.753558324897E+00
   51     8 O    -7.072177050500E-02  2.332861093317E+00  4.773924106041E+00
   52     8 O     4.565985940317E+00  4.637859833063E+00  7.030395561970E+00
   53     8 O     6.876782453972E+00  7.104124030572E+00  7.049259276064E+00
   54     8 O     2.385555430118E+00  2.422787952292E+00  7.033216632669E+00
 WARNING **** CRYSTA **** TESTGEOM  DIRECTIVE - GEOMETRY EDITING COMPLETE
 TTTTTTTTTTTTTTTTTTTTTTTTTTTTTT END         TELAPSE        0.01 TCPU        0.01
 EEEEEEEEEE TERMINATION  DATE 10 03 2023 TIME 10:32:39.0
Fri 10 Mar 2023 10:32:39 GMT
Contents of temporary directory:
total 8
-rw-r--r--  1 brunocamino  admin  4027 10 Mar 10:32 fort.34
SCF abnormal end - no wf written in fort.9
geometry input file fort.34 saved as /Users/brunocamino/Desktop/Imperial/cmsg_icl/solid-solutions/./data/crystal/testgeom_opt/CaMgO_testgeom_3637.gui
temporary directory /Users/brunocamino/crystal/tmp removed
