date Fri 10 Mar 2023 10:28:51 GMT
hostname MacBook-Pro-8
system Darwin MacBook-Pro-8 21.6.0 Darwin Kernel Version 21.6.0: Mon Aug 22 20:20:05 PDT 2022; root:xnu-8020.140.49~2/RELEASE_ARM64_T8101 arm64
user brunocamino
output data in /Users/brunocamino/Desktop/Imperial/cmsg_icl/solid-solutions/./data/crystal/testgeom_opt/CaMgO_testgeom_812.out
crystal executable in /Users/brunocamino/crystal
input data in /Users/brunocamino/Desktop/Imperial/cmsg_icl/solid-solutions/./data/crystal/testgeom_opt/CaMgO_testgeom_812.d12
temporary directory /Users/brunocamino/crystal/tmp
external geometry input from /Users/brunocamino/Desktop/Imperial/cmsg_icl/solid-solutions/./data/crystal/testgeom_opt/CaMgO_testgeom_812.gui
external geometry input saved in /Users/brunocamino/Desktop/Imperial/cmsg_icl/solid-solutions/./data/crystal/testgeom_opt/CaMgO_testgeom_812_inp.gui
Bulk 
EXTERNAL
EXTPRT
TESTGEOM
END

         
 *******************************************************************************
 *                                                                             *
 *                               CRYSTAL17                                     *
 *                      public : 1.0.1 - Feb 1st, 2017                         *
 *                       HTTP://WWW.CRYSTAL.UNITO.IT                           *
 *                                                                             *
 *                              MAIN AUTHORS                                   *
 *                                                                             *
 *  R. DOVESI(1,11), V.R. SAUNDERS(2), C. ROETTI(1,11), R. ORLANDO(1,11),      *
 *  C.M. ZICOVICH-WILSON(1,3), F. PASCALE(4), B. CIVALLERI(1,11),              *
 *  K. DOLL(5), N.M. HARRISON(2,6), I.J. BUSH(7), Ph. D'ARCO(8),               *
 *  M. LLUNELL(9), M. CAUSA'(10), Y. NOEL(8), L. MASCHIO(1,11), A. ERBA(1,11)  *
 *  M. RE'RAT(14), S. CASASSA(1,11)                                            *
 *                                                                             *
 *        CONTRIBUTIONS TO THE CODE HAVE ALSO BEEN GIVEN BY                    *
 *                                                                             *
 *  M. FERRABONE(1,11), M. DE LA PIERRE(1,11), M. FERRERO(1,11),               *
 *  J. BAIMA(1,11), E. ALBANESE(1,11), M.F. PEINTINGER(12), R. BAST(13),       *
 *  B. KIRTMAN(15), V. LACIVITA(1,11), R. DEMICHELIS(1,16)                     *
 *  G. BRANDEBURG(17), S. SALUSTRO(1,11), G. SANSONE(1,11)                     *
 *  M.T. RUGGIERO(18)                                                          *
 *                                                                             *
 * (1) THEORETICAL CHEMISTRY GROUP - UNIVERSITA' DI TORINO - TORINO (ITALY)    *

 * (2) COMPUTATIONAL SCIENCE & ENGINEERING DEPARTMENT - STFC DARESBURY (UK)    *
 * (3) UNIVERSIDAD AUTONOMA DEL ESTADO DE MORELOS - CUERNAVACA (MEXICO)        *
 * (4) UNIVERSITE' DE LORRAINE - NANCY (FRANCE)                                *
 * (5) UNIVERSITAET STUTTGART- STUTTGART (GERMANY)                             *
 * (6) IMPERIAL COLLEGE - LONDON (UK)                                          *
 * (7) OXFORD E-RESEARCH CENTRE - OXFORD (UK)                                  *
 * (8) UPMC - SORBONNE UNIVERSITES - PARIS (FRANCE)                            *
 * (9) UNIVERSIDAD DE BARCELONA - BARCELONA (SPAIN)                            *
 *(10) UNIVERSITA' DI NAPOLI "FEDERICO II" - NAPOLI (ITALY)                    *
 *(11) NIS - NANOSTRUCTURED INTERFACES AND SURFACES - TORINO (ITALY)           *
 *(12) MPI FUER CHEMISCHE ENERGIEKONVERSION - MUELHEIM AN DER RUHR (GERMANY)   *
 *(13) UNIVERSITY OF TROMSO - TROMSO (NORWAY)                                  *
 *(14) UNIVERSITE' DE PAU ET DES PAYS DE L'ADOUR - PAU (FRANCE)                *
 *(15) UNIVERSITY OF CALIFORNIA SANTA BARBARA - SANTA BARBARA (USA)            *
 *(16) CURTIN UNIVERSITY - PERTH (AUSTRALIA)                                   *
 *(17) UNIVERSITY COLLEGE LONDON - LONDON (UK)                                 *
 *(18) CAMBRIDGE UNIVERSITY - CAMBRIDGE (UK)                                   *
 *                                                                             *
 *******************************************************************************
 EEEEEEEEEE STARTING  DATE 10 03 2023 TIME 10:28:51.6
 Bulk                                                                            

 GEOMETRY INPUT FROM EXTERNAL FILE (FORTRAN UNIT 34)
 3D - CRYSTAL 

 *******************************************************************************
 LATTICE PARAMETERS  (ANGSTROMS AND DEGREES) - PRIMITIVE CELL
       A          B          C        ALPHA      BETA     GAMMA        VOLUME
    9.92739    9.89815    9.89885    60.14839  60.02013  59.92582    688.279700
 INFORMATION **** CHKGRP **** SPGR WITH NO INVERSION

 NUMBER OF IRREDUCIBLE ATOMS IN THE CELL:   54

 CARTESIAN COORDINATES (ANGSTROM) - IRREDUCIBLE ATOMS AND SYMMETRY RELATED

 AT.IRR.  AT  AT.N.          X                   Y                   Z
     1     1    20   -7.080858575000E-03 -2.670254396000E-03 -1.219596579600E-02
     2     2    20    2.333115780117E+00  2.339982682574E+00 -4.674200017800E-02
     3     3    20   -2.325019620796E+00 -2.318631541366E+00 -3.530183891100E-02
     4     4    20    2.324038283090E+00 -3.731235442600E-02  2.353580026538E+00
     5     5    20    4.695227504498E+00  2.312328048399E+00  2.327176362708E+00
     6     6    20    5.181813809300E-02 -2.359382431802E+00  2.353754676708E+00
     7     7    20   -2.337811685905E+00 -4.729835628000E-03 -2.321163816487E+00
     8     8    20    3.466477752800E-02  2.315676859944E+00 -2.358128736137E+00
     9     9    12   -4.696435791721E+00 -2.279063500386E+00 -2.308697370162E+00
    10    10    20   -3.773532469600E-02  2.353166618113E+00  2.408190400095E+00
    11    11    20    2.301190741044E+00  4.737978311860E+00  2.346615951582E+00
    12    12    20   -2.395632096940E+00  4.100765728500E-02  2.341251098414E+00
    13    13    20    2.317756577366E+00  2.342426694650E+00  4.746440528777E+00
    14    14    20    4.624121762354E+00  4.683143773184E+00  4.694719456798E+00
    15    15    12    7.946493137500E-02 -8.044699052200E-02  4.683318010601E+00
    16    16    12   -2.432068661572E+00  2.349068272528E+00  6.039367777000E-02
    17    17    20    3.129862303000E-03  4.697116780797E+00 -1.594478228400E-02
    18    18    12   -4.690954455343E+00 -3.421288350100E-02 -2.930199922700E-02
    19    19    12    9.820776764100E-02 -2.233428670530E+00 -2.360518059380E+00
    20    20    12    2.264834262424E+00 -2.879949991600E-02 -2.329379076695E+00
    21    21    20   -2.340923078062E+00 -4.675577004496E+00 -2.347456129613E+00
    22    22    12    2.316130918776E+00 -2.305632084945E+00 -4.405168460700E-02
    23    23    20    4.681834306076E+00 -2.992324750100E-02 -1.779524810600E-02
    24    24    20    7.621584995500E-02 -4.706020156480E+00 -2.804450763300E-02
    25    25    20   -2.353693631980E+00 -2.359127766677E+00 -4.683957007273E+00
    26    26    12    1.127117049360E-01  1.244791249900E-02 -4.619126879934E+00
    27    27    12   -4.643126572803E+00 -4.709858059048E+00 -4.699090187969E+00
    28    28     8    1.032152745230E-01 -9.331327857700E-02 -2.404885071516E+00
    29    29     8    2.325794905055E+00  2.321401545835E+00 -2.407407404803E+00
    30    30     8   -2.349403275456E+00 -2.322762087278E+00 -2.354251145844E+00
    31    31     8    2.327788693218E+00 -7.325698450300E-02 -8.299261865500E-02
    32    32     8    4.676302783799E+00  2.333549828713E+00 -1.449000807200E-02
    33    33     8    1.333162873160E-01 -2.332664427723E+00 -4.080814363600E-02
    34    34     8    4.720211916635E+00  4.730000080000E-03  2.345884803324E+00
    35    35     8    7.076342298877E+00  2.229268104796E+00  2.327709278259E+00
    36    36     8    2.322974162871E+00 -2.413301737854E+00  2.357761239165E+00
    37    37     8   -8.010624810400E-02  2.339360641309E+00  2.301540171000E-03
    38    38     8    2.336561196624E+00  4.753964630579E+00 -8.737813740300E-02
    39    39     8   -2.450633990912E+00  7.859836804900E-02 -2.523752869000E-03
    40    40     8    2.323016215124E+00  2.341898205139E+00  2.349837469830E+00
    41    41     8    4.653812765871E+00  4.669646449569E+00  2.330259392610E+00
    42    42     8   -6.471447134000E-03  3.763948628000E-03  2.388930977173E+00
    43    43     8    4.657427015515E+00  2.335519751230E+00  4.734742879174E+00
    44    44     8    7.075950713880E+00  4.762111415068E+00  4.677435804544E+00
    45    45     8    2.221584304971E+00 -9.107022298900E-02  4.752554348500E+00
    46    46     8    2.017097867000E-03  4.780431696167E+00  2.412598812457E+00
    47    47     8    2.215412261786E+00  7.089524652446E+00  2.356779590533E+00
    48    48     8   -2.442872376220E+00  2.335357949192E+00  2.254340124985E+00
    49    49     8    2.225201856095E+00  4.771078457068E+00  4.755121813748E+00
    50    50     8    4.644198000850E+00  6.996802097337E+00  4.681922034293E+00
    51    51     8    1.019892358700E-02  2.323058629831E+00  4.679009982965E+00
    52    52     8    4.550327513164E+00  4.594082130005E+00  7.006088523666E+00
    53    53     8    7.106494236811E+00  6.997229651799E+00  6.984113721325E+00
    54    54     8    2.431365034638E+00  2.339846860293E+00  7.100042539967E+00

 SYMMETRY CHANGED DURING OLD RUN :  INFORMATION ON SPACE GROUP LOST 
 NUMBER OF SYMMETRY OPERATORS         :    1
 *******************************************************************************
 LATTICE PARAMETERS (ANGSTROMS AND DEGREES) - BOHR = 0.5291772083 ANGSTROM
 PRIMITIVE CELL - CENTRING CODE 1/0 VOLUME=   688.279700 - DENSITY  3.298 g/cm^3
         A              B              C           ALPHA      BETA       GAMMA 
     9.92738596     9.89815234     9.89884966    60.148390  60.020133  59.925823
 *******************************************************************************
 ATOMS IN THE ASYMMETRIC UNIT   54 - ATOMS IN THE UNIT CELL:   54
     ATOM                 X/A                 Y/B                 Z/C    
 *******************************************************************************
      1 T  20 CA   -5.519434614433E-04 -1.185668282099E-03  1.711029986109E-04
      2 T  20 CA   -3.145308914913E-03 -3.306617161403E-03  3.370388769332E-01
      3 T  20 CA   -1.745543801007E-03 -3.485958777205E-03 -3.290988016107E-01
      4 T  20 CA   -1.289568654445E-03  3.367737151249E-01 -3.937149040589E-03
      5 T  20 CA   -5.019544521320E-03  3.369528120648E-01  3.350659946809E-01
      6 T  20 CA   -4.528856207804E-03  3.398409824071E-01 -3.320295828046E-01
      7 T  20 CA    1.581244836703E-03 -3.324489477953E-01 -2.352554982442E-03
      8 T  20 CA   -5.076140367847E-03 -3.308447825531E-01  3.354097914574E-01
      9 T  12 MG    8.791810844246E-03 -3.380954002352E-01 -3.340956039658E-01
     10 T  20 CA    3.417430332873E-01  1.073271262103E-03 -6.289477079386E-03
     11 T  20 CA    3.403241104436E-01 -6.073390532738E-03  3.354169439651E-01
     12 T  20 CA    3.405574772313E-01 -7.482868079956E-03 -3.350266668731E-01
     13 T  20 CA    3.390110064126E-01  3.371093898482E-01 -4.991415965284E-03
     14 T  20 CA    3.374748267826E-01  3.314808768594E-01  3.305409548810E-01
     15 T  12 MG    3.216592269992E-01  3.452850051802E-01 -3.333403465623E-01
     16 T  12 MG    3.455127101275E-01 -3.373645901152E-01 -1.074411328000E-02
     17 T  20 CA    3.335455657804E-01 -3.360504100529E-01  3.362770778566E-01
     18 T  12 MG    3.305651178619E-01 -3.353821342142E-01 -3.358517989124E-01
     19 T  12 MG   -3.341350772750E-01 -1.890088075341E-03  1.575955348779E-02
     20 T  12 MG   -3.294994497026E-01 -1.903142064215E-03  3.256975987846E-01
     21 T  20 CA   -3.330964716121E-01 -1.282482802846E-03 -3.337494135653E-01
     22 T  12 MG   -3.329717334356E-01  3.271326646415E-01  4.386388085004E-03
     23 T  20 CA   -3.378360224602E-01  3.359480896988E-01  3.339780942652E-01
     24 T  20 CA   -3.429767281332E-01  3.392286357649E-01 -3.281066102385E-01
     25 T  20 CA   -3.331909539513E-01 -3.340355725211E-01 -3.216272564336E-03
     26 T  12 MG   -3.356700839745E-01 -3.221031308472E-01  3.376681513406E-01
     27 T  12 MG   -3.383328201833E-01 -3.312465811922E-01 -3.334939474245E-01
     28 T   8 O    -1.850584730999E-01 -1.573910137841E-01  1.718717118904E-01
     29 T   8 O    -1.718346400304E-01 -1.707886130618E-01 -4.968132285471E-01
     30 T   8 O    -1.652189136725E-01 -1.702463943634E-01 -1.661095879206E-01
     31 T   8 O    -1.774061900220E-01  1.659118086842E-01  1.671664224674E-01
     32 T   8 O    -1.686908560473E-01  1.671547732077E-01 -4.981300149125E-01
     33 T   8 O    -1.787437104440E-01  1.730673060051E-01 -1.538870728551E-01
     34 T   8 O    -1.700048287710E-01 -4.952790015756E-01  1.709828338344E-01
     35 T   8 O    -1.809936926708E-01 -4.866651100308E-01  4.994032442403E-01
     36 T   8 O    -1.703235717306E-01 -4.934783042134E-01 -1.737259834231E-01
     37 T   8 O     1.726816624812E-01 -1.724818094256E-01  1.609104372249E-01
     38 T   8 O     1.658348237181E-01 -1.781936716554E-01 -4.876986853756E-01
     39 T   8 O     1.804804100238E-01 -1.811811957716E-01 -1.694857164137E-01
     40 T   8 O     1.681543224571E-01  1.666778651542E-01  1.659009435752E-01
     41 T   8 O     1.662342336289E-01  1.660146061246E-01  4.999684805865E-01
     42 T   8 O     1.706283058500E-01  1.695670292458E-01 -1.702023478693E-01
     43 T   8 O     1.705572139038E-01 -4.957800965469E-01  1.626820522264E-01
     44 T   8 O     1.667347928405E-01 -4.999066897428E-01 -4.872433448349E-01
     45 T   8 O     1.728080263623E-01 -4.957086629583E-01 -1.858203895136E-01
     46 T   8 O    -4.877197550189E-01 -1.689519439843E-01  1.693111806465E-01
     47 T   8 O    -4.851610640553E-01 -1.792701483559E-01  4.962310745071E-01
     48 T   8 O    -4.986624744698E-01 -1.807606230310E-01 -1.686262306167E-01
     49 T   8 O    -4.805979496449E-01  1.578205334564E-01  1.609414164294E-01
     50 T   8 O    -4.999062213212E-01  1.669266854189E-01  4.978583177204E-01
     51 T   8 O     4.976699950535E-01  1.685311410047E-01 -1.666105158023E-01
     52 T   8 O    -4.992223463329E-01  4.973235251888E-01  1.544246103061E-01
     53 T   8 O     4.879642187692E-01 -4.927604263373E-01 -4.898425952959E-01
     54 T   8 O     4.980967982895E-01 -4.867952461980E-01 -1.645437861414E-01

 T = ATOM BELONGING TO THE ASYMMETRIC UNIT
 *******************************************************************************
 * GEOMETRY EDITING - INPUT COORDINATES ARE GIVEN IN ANGSTROM         
 *******************************************************************************

 GCALCO - MAX INDICES DIRECT LATTICE VECTOR    14    15    15
 NO.OF VECTORS CREATED 6999 STARS 3500 RMAX   198.35737 BOHR

 GEOMETRY FOR WAVE FUNCTION - DIMENSIONALITY OF THE SYSTEM    3
 (NON PERIODIC DIRECTION: LATTICE PARAMETER FORMALLY SET TO 500)
 *******************************************************************************
 LATTICE PARAMETERS (ANGSTROMS AND DEGREES) - BOHR = 0.5291772083 ANGSTROM
 PRIMITIVE CELL - CENTRING CODE 1/0 VOLUME=   688.279700 - DENSITY  3.298 g/cm^3
         A              B              C           ALPHA      BETA       GAMMA 
     9.92738596     9.89815234     9.89884966    60.148390  60.020133  59.925823
 *******************************************************************************
 ATOMS IN THE ASYMMETRIC UNIT   54 - ATOMS IN THE UNIT CELL:   54
     ATOM                 X/A                 Y/B                 Z/C    
 *******************************************************************************
      1 T  20 CA   -5.519434614433E-04 -1.185668282099E-03  1.711029986109E-04
      2 T  20 CA   -3.145308914913E-03 -3.306617161403E-03  3.370388769332E-01
      3 T  20 CA   -1.745543801007E-03 -3.485958777205E-03 -3.290988016107E-01
      4 T  20 CA   -1.289568654445E-03  3.367737151249E-01 -3.937149040589E-03
      5 T  20 CA   -5.019544521320E-03  3.369528120648E-01  3.350659946809E-01
      6 T  20 CA   -4.528856207804E-03  3.398409824071E-01 -3.320295828046E-01
      7 T  20 CA    1.581244836703E-03 -3.324489477953E-01 -2.352554982442E-03
      8 T  20 CA   -5.076140367847E-03 -3.308447825531E-01  3.354097914574E-01
      9 T  12 MG    8.791810844246E-03 -3.380954002352E-01 -3.340956039658E-01
     10 T  20 CA    3.417430332873E-01  1.073271262103E-03 -6.289477079386E-03
     11 T  20 CA    3.403241104436E-01 -6.073390532738E-03  3.354169439651E-01
     12 T  20 CA    3.405574772313E-01 -7.482868079956E-03 -3.350266668731E-01
     13 T  20 CA    3.390110064126E-01  3.371093898482E-01 -4.991415965284E-03
     14 T  20 CA    3.374748267826E-01  3.314808768594E-01  3.305409548810E-01
     15 T  12 MG    3.216592269992E-01  3.452850051802E-01 -3.333403465623E-01
     16 T  12 MG    3.455127101275E-01 -3.373645901152E-01 -1.074411328000E-02
     17 T  20 CA    3.335455657804E-01 -3.360504100529E-01  3.362770778566E-01
     18 T  12 MG    3.305651178619E-01 -3.353821342142E-01 -3.358517989124E-01
     19 T  12 MG   -3.341350772750E-01 -1.890088075341E-03  1.575955348779E-02
     20 T  12 MG   -3.294994497026E-01 -1.903142064214E-03  3.256975987846E-01
     21 T  20 CA   -3.330964716121E-01 -1.282482802846E-03 -3.337494135653E-01
     22 T  12 MG   -3.329717334356E-01  3.271326646415E-01  4.386388085004E-03
     23 T  20 CA   -3.378360224602E-01  3.359480896988E-01  3.339780942652E-01
     24 T  20 CA   -3.429767281332E-01  3.392286357649E-01 -3.281066102385E-01
     25 T  20 CA   -3.331909539513E-01 -3.340355725211E-01 -3.216272564336E-03
     26 T  12 MG   -3.356700839745E-01 -3.221031308472E-01  3.376681513406E-01
     27 T  12 MG   -3.383328201833E-01 -3.312465811922E-01 -3.334939474245E-01
     28 T   8 O    -1.850584730999E-01 -1.573910137841E-01  1.718717118904E-01
     29 T   8 O    -1.718346400304E-01 -1.707886130618E-01 -4.968132285471E-01
     30 T   8 O    -1.652189136725E-01 -1.702463943634E-01 -1.661095879206E-01
     31 T   8 O    -1.774061900220E-01  1.659118086842E-01  1.671664224674E-01
     32 T   8 O    -1.686908560473E-01  1.671547732077E-01 -4.981300149125E-01
     33 T   8 O    -1.787437104440E-01  1.730673060051E-01 -1.538870728551E-01
     34 T   8 O    -1.700048287710E-01 -4.952790015756E-01  1.709828338344E-01
     35 T   8 O    -1.809936926708E-01 -4.866651100308E-01  4.994032442403E-01
     36 T   8 O    -1.703235717306E-01 -4.934783042134E-01 -1.737259834231E-01
     37 T   8 O     1.726816624812E-01 -1.724818094256E-01  1.609104372249E-01
     38 T   8 O     1.658348237181E-01 -1.781936716554E-01 -4.876986853756E-01
     39 T   8 O     1.804804100238E-01 -1.811811957716E-01 -1.694857164137E-01
     40 T   8 O     1.681543224571E-01  1.666778651542E-01  1.659009435752E-01
     41 T   8 O     1.662342336289E-01  1.660146061246E-01  4.999684805865E-01
     42 T   8 O     1.706283058500E-01  1.695670292458E-01 -1.702023478693E-01
     43 T   8 O     1.705572139038E-01 -4.957800965469E-01  1.626820522264E-01
     44 T   8 O     1.667347928405E-01 -4.999066897428E-01 -4.872433448349E-01
     45 T   8 O     1.728080263623E-01 -4.957086629583E-01 -1.858203895136E-01
     46 T   8 O    -4.877197550189E-01 -1.689519439843E-01  1.693111806465E-01
     47 T   8 O    -4.851610640553E-01 -1.792701483559E-01  4.962310745071E-01
     48 T   8 O    -4.986624744698E-01 -1.807606230310E-01 -1.686262306167E-01
     49 T   8 O    -4.805979496449E-01  1.578205334564E-01  1.609414164294E-01
     50 T   8 O    -4.999062213212E-01  1.669266854189E-01  4.978583177204E-01
     51 T   8 O     4.976699950535E-01  1.685311410047E-01 -1.666105158023E-01
     52 T   8 O    -4.992223463329E-01  4.973235251888E-01  1.544246103061E-01
     53 T   8 O     4.879642187692E-01 -4.927604263373E-01 -4.898425952959E-01
     54 T   8 O     4.980967982895E-01 -4.867952461980E-01 -1.645437861414E-01

 T = ATOM BELONGING TO THE ASYMMETRIC UNIT

 ****    1 SYMMOPS - TRANSLATORS IN FRACTIONAL UNITS
 **** MATRICES AND TRANSLATORS IN THE CRYSTALLOGRAPHIC REFERENCE FRAME
   V INV                    ROTATION MATRICES                   TRANSLATORS
   1   1  1.00  0.00  0.00  0.00  1.00  0.00  0.00  0.00  1.00  0.00  0.00  0.00

 DIRECT LATTICE VECTORS CARTESIAN COMPONENTS (ANGSTROM)
          X                    Y                    Z
  -0.368895271317E-02   0.701476406774E+01   0.702467533244E+01
   0.698260432482E+01  -0.200123153039E-02   0.701545811230E+01
   0.699086407465E+01   0.700821129811E+01  -0.430155729946E-02


 CARTESIAN COORDINATES - PRIMITIVE CELL
 *******************************************************************************
 *      ATOM          X(ANGSTROM)         Y(ANGSTROM)         Z(ANGSTROM)
 *******************************************************************************
    1    20 CA   -7.080858575000E-03 -2.670254396000E-03 -1.219596579600E-02
    2    20 CA    2.333115780117E+00  2.339982682574E+00 -4.674200017800E-02
    3    20 CA   -2.325019620796E+00 -2.318631541366E+00 -3.530183891100E-02
    4    20 CA    2.324038283090E+00 -3.731235442600E-02  2.353580026538E+00
    5    20 CA    4.695227504498E+00  2.312328048399E+00  2.327176362708E+00
    6    20 CA    5.181813809300E-02 -2.359382431802E+00  2.353754676708E+00
    7    20 CA   -2.337811685905E+00 -4.729835628000E-03 -2.321163816487E+00
    8    20 CA    3.466477752800E-02  2.315676859944E+00 -2.358128736137E+00
    9    12 MG   -4.696435791721E+00 -2.279063500386E+00 -2.308697370162E+00
   10    20 CA   -3.773532469600E-02  2.353166618113E+00  2.408190400095E+00
   11    20 CA    2.301190741044E+00  4.737978311860E+00  2.346615951582E+00
   12    20 CA   -2.395632096940E+00  4.100765728500E-02  2.341251098414E+00
   13    20 CA    2.317756577366E+00  2.342426694650E+00  4.746440528777E+00
   14    20 CA    4.624121762354E+00  4.683143773184E+00  4.694719456798E+00
   15    12 MG    7.946493137500E-02 -8.044699052200E-02  4.683318010601E+00
   16    12 MG   -2.432068661572E+00  2.349068272528E+00  6.039367777000E-02
   17    20 CA    3.129862303000E-03  4.697116780797E+00 -1.594478228400E-02
   18    12 MG   -4.690954455343E+00 -3.421288350100E-02 -2.930199922700E-02
   19    12 MG    9.820776764100E-02 -2.233428670530E+00 -2.360518059380E+00
   20    12 MG    2.264834262424E+00 -2.879949991600E-02 -2.329379076695E+00
   21    20 CA   -2.340923078062E+00 -4.675577004496E+00 -2.347456129613E+00
   22    12 MG    2.316130918776E+00 -2.305632084945E+00 -4.405168460700E-02
   23    20 CA    4.681834306076E+00 -2.992324750100E-02 -1.779524810600E-02
   24    20 CA    7.621584995500E-02 -4.706020156480E+00 -2.804450763300E-02
   25    20 CA   -2.353693631980E+00 -2.359127766677E+00 -4.683957007273E+00
   26    12 MG    1.127117049360E-01  1.244791249900E-02 -4.619126879934E+00
   27    12 MG   -4.643126572803E+00 -4.709858059048E+00 -4.699090187969E+00
   28     8 O     1.032152745230E-01 -9.331327857700E-02 -2.404885071516E+00
   29     8 O     2.325794905055E+00  2.321401545835E+00 -2.407407404803E+00
   30     8 O    -2.349403275456E+00 -2.322762087278E+00 -2.354251145844E+00
   31     8 O     2.327788693218E+00 -7.325698450300E-02 -8.299261865500E-02
   32     8 O     4.676302783799E+00  2.333549828713E+00 -1.449000807200E-02
   33     8 O     1.333162873160E-01 -2.332664427723E+00 -4.080814363600E-02
   34     8 O     4.720211916635E+00  4.730000080000E-03  2.345884803324E+00
   35     8 O     7.076342298877E+00  2.229268104796E+00  2.327709278259E+00
   36     8 O     2.322974162871E+00 -2.413301737854E+00  2.357761239165E+00
   37     8 O    -8.010624810400E-02  2.339360641309E+00  2.301540171000E-03
   38     8 O     2.336561196624E+00  4.753964630579E+00 -8.737813740300E-02
   39     8 O    -2.450633990912E+00  7.859836804900E-02 -2.523752869000E-03
   40     8 O     2.323016215124E+00  2.341898205139E+00  2.349837469830E+00
   41     8 O     4.653812765871E+00  4.669646449569E+00  2.330259392610E+00
   42     8 O    -6.471447134000E-03  3.763948628000E-03  2.388930977173E+00
   43     8 O     4.657427015515E+00  2.335519751230E+00  4.734742879174E+00
   44     8 O     7.075950713880E+00  4.762111415068E+00  4.677435804544E+00
   45     8 O     2.221584304971E+00 -9.107022298900E-02  4.752554348500E+00
   46     8 O     2.017097867000E-03  4.780431696167E+00  2.412598812457E+00
   47     8 O     2.215412261786E+00  7.089524652446E+00  2.356779590533E+00
   48     8 O    -2.442872376220E+00  2.335357949192E+00  2.254340124985E+00
   49     8 O     2.225201856095E+00  4.771078457068E+00  4.755121813748E+00
   50     8 O     4.644198000850E+00  6.996802097337E+00  4.681922034293E+00
   51     8 O     1.019892358700E-02  2.323058629831E+00  4.679009982965E+00
   52     8 O     4.550327513164E+00  4.594082130005E+00  7.006088523666E+00
   53     8 O     7.106494236811E+00  6.997229651799E+00  6.984113721325E+00
   54     8 O     2.431365034638E+00  2.339846860293E+00  7.100042539967E+00
 WARNING **** CRYSTA **** TESTGEOM  DIRECTIVE - GEOMETRY EDITING COMPLETE
 TTTTTTTTTTTTTTTTTTTTTTTTTTTTTT END         TELAPSE        0.01 TCPU        0.01
 EEEEEEEEEE TERMINATION  DATE 10 03 2023 TIME 10:28:51.7
Fri 10 Mar 2023 10:28:51 GMT
Contents of temporary directory:
total 8
-rw-r--r--  1 brunocamino  admin  4027 10 Mar 10:28 fort.34
SCF abnormal end - no wf written in fort.9
geometry input file fort.34 saved as /Users/brunocamino/Desktop/Imperial/cmsg_icl/solid-solutions/./data/crystal/testgeom_opt/CaMgO_testgeom_812.gui
temporary directory /Users/brunocamino/crystal/tmp removed
