date Fri 10 Mar 2023 10:32:01 GMT
hostname MacBook-Pro-8
system Darwin MacBook-Pro-8 21.6.0 Darwin Kernel Version 21.6.0: Mon Aug 22 20:20:05 PDT 2022; root:xnu-8020.140.49~2/RELEASE_ARM64_T8101 arm64
user brunocamino
output data in /Users/brunocamino/Desktop/Imperial/cmsg_icl/solid-solutions/./data/crystal/testgeom_opt/CaMgO_testgeom_3164.out
crystal executable in /Users/brunocamino/crystal
input data in /Users/brunocamino/Desktop/Imperial/cmsg_icl/solid-solutions/./data/crystal/testgeom_opt/CaMgO_testgeom_3164.d12
temporary directory /Users/brunocamino/crystal/tmp
external geometry input from /Users/brunocamino/Desktop/Imperial/cmsg_icl/solid-solutions/./data/crystal/testgeom_opt/CaMgO_testgeom_3164.gui
external geometry input saved in /Users/brunocamino/Desktop/Imperial/cmsg_icl/solid-solutions/./data/crystal/testgeom_opt/CaMgO_testgeom_3164_inp.gui
Bulk 
EXTERNAL
EXTPRT
TESTGEOM
END

         
 *******************************************************************************
 *                                                                             *
 *                               CRYSTAL17                                     *
 *                      public : 1.0.1 - Feb 1st, 2017                         *
 *                       HTTP://WWW.CRYSTAL.UNITO.IT                           *
 *                                                                             *
 *                              MAIN AUTHORS                                   *
 *                                                                             *
 *  R. DOVESI(1,11), V.R. SAUNDERS(2), C. ROETTI(1,11), R. ORLANDO(1,11),      *
 *  C.M. ZICOVICH-WILSON(1,3), F. PASCALE(4), B. CIVALLERI(1,11),              *
 *  K. DOLL(5), N.M. HARRISON(2,6), I.J. BUSH(7), Ph. D'ARCO(8),               *
 *  M. LLUNELL(9), M. CAUSA'(10), Y. NOEL(8), L. MASCHIO(1,11), A. ERBA(1,11)  *
 *  M. RE'RAT(14), S. CASASSA(1,11)                                            *
 *                                                                             *
 *        CONTRIBUTIONS TO THE CODE HAVE ALSO BEEN GIVEN BY                    *
 *                                                                             *
 *  M. FERRABONE(1,11), M. DE LA PIERRE(1,11), M. FERRERO(1,11),               *
 *  J. BAIMA(1,11), E. ALBANESE(1,11), M.F. PEINTINGER(12), R. BAST(13),       *
 *  B. KIRTMAN(15), V. LACIVITA(1,11), R. DEMICHELIS(1,16)                     *
 *  G. BRANDEBURG(17), S. SALUSTRO(1,11), G. SANSONE(1,11)                     *
 *  M.T. RUGGIERO(18)                                                          *
 *                                                                             *
 * (1) THEORETICAL CHEMISTRY GROUP - UNIVERSITA' DI TORINO - TORINO (ITALY)    *

 * (2) COMPUTATIONAL SCIENCE & ENGINEERING DEPARTMENT - STFC DARESBURY (UK)    *
 * (3) UNIVERSIDAD AUTONOMA DEL ESTADO DE MORELOS - CUERNAVACA (MEXICO)        *
 * (4) UNIVERSITE' DE LORRAINE - NANCY (FRANCE)                                *
 * (5) UNIVERSITAET STUTTGART- STUTTGART (GERMANY)                             *
 * (6) IMPERIAL COLLEGE - LONDON (UK)                                          *
 * (7) OXFORD E-RESEARCH CENTRE - OXFORD (UK)                                  *
 * (8) UPMC - SORBONNE UNIVERSITES - PARIS (FRANCE)                            *
 * (9) UNIVERSIDAD DE BARCELONA - BARCELONA (SPAIN)                            *
 *(10) UNIVERSITA' DI NAPOLI "FEDERICO II" - NAPOLI (ITALY)                    *
 *(11) NIS - NANOSTRUCTURED INTERFACES AND SURFACES - TORINO (ITALY)           *
 *(12) MPI FUER CHEMISCHE ENERGIEKONVERSION - MUELHEIM AN DER RUHR (GERMANY)   *
 *(13) UNIVERSITY OF TROMSO - TROMSO (NORWAY)                                  *
 *(14) UNIVERSITE' DE PAU ET DES PAYS DE L'ADOUR - PAU (FRANCE)                *
 *(15) UNIVERSITY OF CALIFORNIA SANTA BARBARA - SANTA BARBARA (USA)            *
 *(16) CURTIN UNIVERSITY - PERTH (AUSTRALIA)                                   *
 *(17) UNIVERSITY COLLEGE LONDON - LONDON (UK)                                 *
 *(18) CAMBRIDGE UNIVERSITY - CAMBRIDGE (UK)                                   *
 *                                                                             *
 *******************************************************************************
 EEEEEEEEEE STARTING  DATE 10 03 2023 TIME 10:32:01.5
 Bulk                                                                            

 GEOMETRY INPUT FROM EXTERNAL FILE (FORTRAN UNIT 34)
 3D - CRYSTAL 

 *******************************************************************************
 LATTICE PARAMETERS  (ANGSTROMS AND DEGREES) - PRIMITIVE CELL
       A          B          C        ALPHA      BETA     GAMMA        VOLUME
    9.93989    9.93026    9.90473    60.04861  60.00296  59.82948    690.678607
 INFORMATION **** CHKGRP **** SPGR WITH NO INVERSION

 NUMBER OF IRREDUCIBLE ATOMS IN THE CELL:   54

 CARTESIAN COORDINATES (ANGSTROM) - IRREDUCIBLE ATOMS AND SYMMETRY RELATED

 AT.IRR.  AT  AT.N.          X                   Y                   Z
     1     1    20    2.483710383900E-02 -6.920953647000E-03 -6.420579340800E-02
     2     2    20    2.310596857428E+00  2.330102827900E+00 -7.821847439800E-02
     3     3    20   -2.338180031458E+00 -2.322339496514E+00 -2.388510589800E-02
     4     4    20    2.351722392428E+00 -4.154413042700E-02  2.416728524765E+00
     5     5    20    4.697328706355E+00  2.353444949861E+00  2.378730107611E+00
     6     6    20    3.884217157900E-02 -2.334270924465E+00  2.411662312795E+00
     7     7    20   -2.316031604739E+00 -2.109750956700E-02 -2.357698332462E+00
     8     8    12    3.317635944700E-02  2.420481798241E+00 -2.357856794060E+00
     9     9    12   -4.701410687555E+00 -2.288673182403E+00 -2.325441124052E+00
    10    10    20   -1.764922998100E-02  2.351986856031E+00  2.407814156288E+00
    11    11    20    2.316304535596E+00  4.697708353888E+00  2.341561584776E+00
    12    12    20   -2.349039430278E+00 -6.575898765000E-03  2.383230407654E+00
    13    13    20    2.334470770688E+00  2.381835871373E+00  4.759613226266E+00
    14    14    12    4.654655887310E+00  4.697973062225E+00  4.694461293724E+00
    15    15    12    6.460561585600E-02 -8.953619081400E-02  4.721189224333E+00
    16    16    20   -2.358635600337E+00  2.391253538175E+00  7.054458031000E-03
    17    17    20   -3.974067241500E-02  4.683215794730E+00 -6.124347642800E-02
    18    18    12   -4.694874228081E+00 -6.475614983000E-02 -7.682873229500E-02
    19    19    12    3.729336716000E-02 -2.350945526333E+00 -2.357304096137E+00
    20    20    12    2.249305983668E+00 -1.392179779630E-01 -2.318963910317E+00
    21    21    20   -2.349056871090E+00 -4.670246437379E+00 -2.379132071366E+00
    22    22    12    2.354993105255E+00 -2.256482209715E+00 -1.471794667990E-01
    23    23    20    4.664677079597E+00 -5.868097586600E-02 -4.317887183700E-02
    24    24    20    4.394080806700E-02 -4.672992848990E+00 -6.753341296300E-02
    25    25    12   -2.392934435296E+00 -2.326220511657E+00 -4.577383767894E+00
    26    26    20    2.009257481300E-02 -2.396659044800E-02 -4.651066536302E+00
    27    27    20   -4.663672451959E+00 -4.655634693859E+00 -4.688797079913E+00
    28    28     8    1.053278656660E-01 -6.752691199300E-02 -2.344837994688E+00
    29    29     8    2.196629732071E+00  2.350277525342E+00 -2.342591718348E+00
    30    30     8   -2.329996381016E+00 -2.329460433574E+00 -2.368381904506E+00
    31    31     8    2.334660430646E+00 -1.015044019480E-01 -8.303303968000E-02
    32    32     8    4.665132218592E+00  2.325647670568E+00 -1.096597633300E-02
    33    33     8    1.189080573950E-01 -2.330727130721E+00 -6.515200698900E-02
    34    34     8    4.675808206285E+00 -9.680437815700E-02  2.372419162721E+00
    35    35     8    7.003332908657E+00  2.343267989056E+00  2.437947721118E+00
    36    36     8    2.431343657764E+00 -2.322333926554E+00  2.454900334242E+00
    37    37     8   -2.971484140000E-03  2.349461575003E+00 -6.267848639700E-02
    38    38     8    2.324784911468E+00  4.757653322381E+00 -7.308571276800E-02
    39    39     8   -2.408992998917E+00  9.495505996000E-03 -2.604392673600E-02
    40    40     8    2.344604149300E+00  2.338607463361E+00  2.379241633898E+00
    41    41     8    4.665171037176E+00  4.671998687943E+00  2.384491074070E+00
    42    42     8    1.410488854600E-02 -3.375382510000E-04  2.409761026831E+00
    43    43     8    4.775568614899E+00  2.450584779851E+00  4.691967016188E+00
    44    44     8    7.020231318592E+00  4.716897668375E+00  4.700145079736E+00
    45    45     8    2.232697143895E+00 -9.749729376700E-02  4.787933331556E+00
    46    46     8   -1.007190298440E-01  4.661970336386E+00  2.398585168364E+00
    47    47     8    2.333821350784E+00  6.996158144758E+00  2.351083739737E+00
    48    48     8   -2.336221835737E+00  2.449030949451E+00  2.363034342515E+00
    49    49     8    2.292479368437E+00  4.779522269510E+00  4.730023791279E+00
    50    50     8    4.682799923432E+00  6.883808978611E+00  4.696273410743E+00
    51    51     8    3.496886585000E-03  2.371007605362E+00  4.690518174306E+00
    52    52     8    4.527267520248E+00  4.686344091030E+00  6.965692890724E+00
    53    53     8    7.115799872803E+00  7.013770891792E+00  6.980654553364E+00
    54    54     8    2.335663167927E+00  2.362167374726E+00  7.032782439348E+00

 SYMMETRY CHANGED DURING OLD RUN :  INFORMATION ON SPACE GROUP LOST 
 NUMBER OF SYMMETRY OPERATORS         :    1
 *******************************************************************************
 LATTICE PARAMETERS (ANGSTROMS AND DEGREES) - BOHR = 0.5291772083 ANGSTROM
 PRIMITIVE CELL - CENTRING CODE 1/0 VOLUME=   690.678607 - DENSITY  3.287 g/cm^3
         A              B              C           ALPHA      BETA       GAMMA 
     9.93989208     9.93026260     9.90473472    60.048606  60.002959  59.829478
 *******************************************************************************
 ATOMS IN THE ASYMMETRIC UNIT   54 - ATOMS IN THE UNIT CELL:   54
     ATOM                 X/A                 Y/B                 Z/C    
 *******************************************************************************
      1 T  20 CA   -6.828299537077E-03 -2.296069709442E-03  5.847226262016E-03
      2 T  20 CA   -4.683864044051E-03 -6.768717166060E-03  3.370368221785E-01
      3 T  20 CA   -4.490769203717E-05 -3.011904851040E-03 -3.311882664119E-01
      4 T  20 CA    6.701226507192E-04  3.426759397357E-01 -6.943056312193E-03
      5 T  20 CA    9.634077498323E-04  3.366374122207E-01  3.343679046034E-01
      6 T  20 CA    2.263495261270E-03  3.406959337376E-01 -3.355478733778E-01
      7 T  20 CA   -3.489138680728E-03 -3.314631113414E-01  8.176550270697E-04
      8 T  12 MG    2.553193676425E-03 -3.378784042403E-01  3.430219854751E-01
      9 T  12 MG    7.727068632504E-03 -3.377617984276E-01 -3.338235771296E-01
     10 T  20 CA    3.398210890170E-01  2.099764839205E-03 -4.544450561473E-03
     11 T  20 CA    3.354307762823E-01 -3.264632774235E-03  3.344249344571E-01
     12 T  20 CA    3.366612832140E-01  2.107024969359E-03 -3.377857096682E-01
     13 T  20 CA    3.409359508387E-01  3.350964721192E-01 -1.739851008747E-03
     14 T  12 MG    3.355003772670E-01  3.309374081610E-01  3.340545243135E-01
     15 T  12 MG    3.243617202451E-01  3.465608084427E-01 -3.376609828790E-01
     16 T  20 CA    3.393559323046E-01 -3.385120386874E-01  1.866603322404E-03
     17 T  20 CA    3.320671376641E-01 -3.412623522287E-01  3.360657066842E-01
     18 T  12 MG    3.253894140855E-01 -3.361144885157E-01 -3.344633430736E-01
     19 T  12 MG   -3.375627040755E-01  2.818812472341E-03  2.428371905876E-03
     20 T  12 MG   -3.353547901280E-01  5.738542453431E-03  3.156759126520E-01
     21 T  20 CA   -3.338031879840E-01 -3.703594411681E-03 -3.321294511044E-01
     22 T  12 MG   -3.394494837943E-01  3.186787362072E-01  1.746958004509E-02
     23 T  20 CA   -3.405483645443E-01  3.342336849472E-01  3.320266116655E-01
     24 T  20 CA   -3.407863612646E-01  3.316801904015E-01 -3.258738989330E-01
     25 T  12 MG   -3.198530803021E-01 -3.302867444210E-01 -1.142699538408E-02
     26 T  20 CA   -3.335172581593E-01 -3.274317138240E-01  3.306132091459E-01
     27 T  20 CA   -3.314380904052E-01 -3.341988741290E-01 -3.320769930627E-01
     28 T   8 O    -1.788942437119E-01 -1.543215063696E-01  1.695171400436E-01
     29 T   8 O    -1.559465800385E-01 -1.772876745313E-01  4.914326265107E-01
     30 T   8 O    -1.676711266320E-01 -1.685554675278E-01 -1.643182253266E-01
     31 T   8 O    -1.799446657128E-01  1.680632532596E-01  1.653953574441E-01
     32 T   8 O    -1.684608978594E-01  1.664725653413E-01 -4.999073771607E-01
     33 T   8 O    -1.791380140448E-01  1.701203978676E-01 -1.533687859532E-01
     34 T   8 O    -1.724744477527E-01 -4.905624388542E-01  1.582456232724E-01
     35 T   8 O    -1.603242555689E-01 -4.937499657711E-01  4.941205438920E-01
     36 T   8 O    -1.647645119787E-01 -4.862276759542E-01 -1.669011319761E-01
     37 T   8 O     1.631084584650E-01 -1.722630624374E-01  1.720813919296E-01
     38 T   8 O     1.675774214097E-01 -1.785570413917E-01 -4.889022511036E-01
     39 T   8 O     1.709542954534E-01 -1.745608771040E-01 -1.695167491514E-01
     40 T   8 O     1.680502853310E-01  1.697180131396E-01  1.652423260648E-01
     41 T   8 O     1.688171594366E-01  1.693592196257E-01  4.972879575770E-01
     42 T   8 O     1.701382461264E-01  1.723059645037E-01 -1.704540993016E-01
     43 T   8 O     1.666059183812E-01  4.997095103548E-01  1.823245938169E-01
     44 T   8 O     1.682264604032E-01  4.989233058830E-01 -4.960508881561E-01
     45 T   8 O     1.736206774242E-01 -4.932983890317E-01 -1.881350967232E-01
     46 T   8 O    -4.903625862583E-01 -1.692682626934E-01  1.551937179190E-01
     47 T   8 O     4.985703690962E-01 -1.652940231796E-01  4.991889768792E-01
     48 T   8 O    -4.907802575278E-01 -1.735807883252E-01 -1.600164801338E-01
     49 T   8 O    -4.873821743369E-01  1.589586533505E-01  1.686456809230E-01
     50 T   8 O     4.893116695949E-01  1.771521143973E-01  4.920814611760E-01
     51 T   8 O    -4.981900287768E-01  1.644970399942E-01 -1.640736055057E-01
     52 T   8 O    -4.948956603883E-01  4.840984040414E-01  1.625438923031E-01
     53 T   8 O     4.869895286410E-01 -4.960085152855E-01 -4.873896729336E-01
     54 T   8 O    -4.990824774521E-01  4.981509607205E-01 -1.647795251579E-01

 T = ATOM BELONGING TO THE ASYMMETRIC UNIT
 *******************************************************************************
 * GEOMETRY EDITING - INPUT COORDINATES ARE GIVEN IN ANGSTROM         
 *******************************************************************************

 GCALCO - MAX INDICES DIRECT LATTICE VECTOR    14    15    15
 NO.OF VECTORS CREATED 6999 STARS 3500 RMAX   198.58437 BOHR

 GEOMETRY FOR WAVE FUNCTION - DIMENSIONALITY OF THE SYSTEM    3
 (NON PERIODIC DIRECTION: LATTICE PARAMETER FORMALLY SET TO 500)
 *******************************************************************************
 LATTICE PARAMETERS (ANGSTROMS AND DEGREES) - BOHR = 0.5291772083 ANGSTROM
 PRIMITIVE CELL - CENTRING CODE 1/0 VOLUME=   690.678607 - DENSITY  3.287 g/cm^3
         A              B              C           ALPHA      BETA       GAMMA 
     9.93989208     9.93026260     9.90473472    60.048606  60.002959  59.829478
 *******************************************************************************
 ATOMS IN THE ASYMMETRIC UNIT   54 - ATOMS IN THE UNIT CELL:   54
     ATOM                 X/A                 Y/B                 Z/C    
 *******************************************************************************
      1 T  20 CA   -6.828299537077E-03 -2.296069709442E-03  5.847226262016E-03
      2 T  20 CA   -4.683864044050E-03 -6.768717166060E-03  3.370368221785E-01
      3 T  20 CA   -4.490769203722E-05 -3.011904851040E-03 -3.311882664119E-01
      4 T  20 CA    6.701226507192E-04  3.426759397357E-01 -6.943056312193E-03
      5 T  20 CA    9.634077498323E-04  3.366374122207E-01  3.343679046034E-01
      6 T  20 CA    2.263495261270E-03  3.406959337376E-01 -3.355478733778E-01
      7 T  20 CA   -3.489138680728E-03 -3.314631113414E-01  8.176550270697E-04
      8 T  12 MG    2.553193676426E-03 -3.378784042403E-01  3.430219854751E-01
      9 T  12 MG    7.727068632504E-03 -3.377617984276E-01 -3.338235771296E-01
     10 T  20 CA    3.398210890170E-01  2.099764839205E-03 -4.544450561473E-03
     11 T  20 CA    3.354307762823E-01 -3.264632774235E-03  3.344249344571E-01
     12 T  20 CA    3.366612832140E-01  2.107024969359E-03 -3.377857096682E-01
     13 T  20 CA    3.409359508387E-01  3.350964721192E-01 -1.739851008747E-03
     14 T  12 MG    3.355003772670E-01  3.309374081610E-01  3.340545243135E-01
     15 T  12 MG    3.243617202451E-01  3.465608084427E-01 -3.376609828790E-01
     16 T  20 CA    3.393559323046E-01 -3.385120386874E-01  1.866603322404E-03
     17 T  20 CA    3.320671376641E-01 -3.412623522287E-01  3.360657066842E-01
     18 T  12 MG    3.253894140855E-01 -3.361144885157E-01 -3.344633430736E-01
     19 T  12 MG   -3.375627040755E-01  2.818812472341E-03  2.428371905876E-03
     20 T  12 MG   -3.353547901280E-01  5.738542453431E-03  3.156759126520E-01
     21 T  20 CA   -3.338031879840E-01 -3.703594411681E-03 -3.321294511044E-01
     22 T  12 MG   -3.394494837943E-01  3.186787362072E-01  1.746958004509E-02
     23 T  20 CA   -3.405483645443E-01  3.342336849472E-01  3.320266116655E-01
     24 T  20 CA   -3.407863612646E-01  3.316801904015E-01 -3.258738989330E-01
     25 T  12 MG   -3.198530803021E-01 -3.302867444210E-01 -1.142699538408E-02
     26 T  20 CA   -3.335172581593E-01 -3.274317138240E-01  3.306132091459E-01
     27 T  20 CA   -3.314380904052E-01 -3.341988741290E-01 -3.320769930627E-01
     28 T   8 O    -1.788942437119E-01 -1.543215063696E-01  1.695171400436E-01
     29 T   8 O    -1.559465800385E-01 -1.772876745313E-01  4.914326265107E-01
     30 T   8 O    -1.676711266320E-01 -1.685554675278E-01 -1.643182253266E-01
     31 T   8 O    -1.799446657128E-01  1.680632532596E-01  1.653953574441E-01
     32 T   8 O    -1.684608978594E-01  1.664725653413E-01 -4.999073771607E-01
     33 T   8 O    -1.791380140448E-01  1.701203978676E-01 -1.533687859532E-01
     34 T   8 O    -1.724744477527E-01 -4.905624388542E-01  1.582456232724E-01
     35 T   8 O    -1.603242555689E-01 -4.937499657711E-01  4.941205438920E-01
     36 T   8 O    -1.647645119787E-01 -4.862276759542E-01 -1.669011319761E-01
     37 T   8 O     1.631084584650E-01 -1.722630624374E-01  1.720813919296E-01
     38 T   8 O     1.675774214097E-01 -1.785570413917E-01 -4.889022511036E-01
     39 T   8 O     1.709542954534E-01 -1.745608771040E-01 -1.695167491514E-01
     40 T   8 O     1.680502853310E-01  1.697180131396E-01  1.652423260648E-01
     41 T   8 O     1.688171594366E-01  1.693592196257E-01  4.972879575770E-01
     42 T   8 O     1.701382461264E-01  1.723059645037E-01 -1.704540993016E-01
     43 T   8 O     1.666059183812E-01  4.997095103548E-01  1.823245938169E-01
     44 T   8 O     1.682264604032E-01  4.989233058830E-01 -4.960508881561E-01
     45 T   8 O     1.736206774242E-01 -4.932983890317E-01 -1.881350967232E-01
     46 T   8 O    -4.903625862583E-01 -1.692682626934E-01  1.551937179190E-01
     47 T   8 O     4.985703690962E-01 -1.652940231796E-01  4.991889768792E-01
     48 T   8 O    -4.907802575278E-01 -1.735807883252E-01 -1.600164801338E-01
     49 T   8 O    -4.873821743369E-01  1.589586533505E-01  1.686456809230E-01
     50 T   8 O     4.893116695949E-01  1.771521143973E-01  4.920814611760E-01
     51 T   8 O    -4.981900287768E-01  1.644970399942E-01 -1.640736055057E-01
     52 T   8 O    -4.948956603883E-01  4.840984040414E-01  1.625438923031E-01
     53 T   8 O     4.869895286410E-01 -4.960085152855E-01 -4.873896729336E-01
     54 T   8 O    -4.990824774521E-01  4.981509607205E-01 -1.647795251579E-01

 T = ATOM BELONGING TO THE ASYMMETRIC UNIT

 ****    1 SYMMOPS - TRANSLATORS IN FRACTIONAL UNITS
 **** MATRICES AND TRANSLATORS IN THE CRYSTALLOGRAPHIC REFERENCE FRAME
   V INV                    ROTATION MATRICES                   TRANSLATORS
   1   1  1.00  0.00  0.00  0.00  1.00  0.00  0.00  0.00  1.00  0.00  0.00  0.00

 DIRECT LATTICE VECTORS CARTESIAN COMPONENTS (ANGSTROM)
          X                    Y                    Z
  -0.165669204071E-02   0.701496682238E+01   0.704213691543E+01
   0.700457409046E+01   0.710184888198E-02   0.703889243635E+01
   0.699627139656E+01   0.701112725281E+01   0.715117577318E-02


 CARTESIAN COORDINATES - PRIMITIVE CELL
 *******************************************************************************
 *      ATOM          X(ANGSTROM)         Y(ANGSTROM)         Z(ANGSTROM)
 *******************************************************************************
    1    20 CA    2.483710383900E-02 -6.920953647000E-03 -6.420579340800E-02
    2    20 CA    2.310596857428E+00  2.330102827900E+00 -7.821847439800E-02
    3    20 CA   -2.338180031458E+00 -2.322339496514E+00 -2.388510589800E-02
    4    20 CA    2.351722392428E+00 -4.154413042700E-02  2.416728524765E+00
    5    20 CA    4.697328706355E+00  2.353444949861E+00  2.378730107611E+00
    6    20 CA    3.884217157900E-02 -2.334270924465E+00  2.411662312795E+00
    7    20 CA   -2.316031604739E+00 -2.109750956700E-02 -2.357698332462E+00
    8    12 MG    3.317635944700E-02  2.420481798241E+00 -2.357856794060E+00
    9    12 MG   -4.701410687555E+00 -2.288673182403E+00 -2.325441124052E+00
   10    20 CA   -1.764922998100E-02  2.351986856031E+00  2.407814156288E+00
   11    20 CA    2.316304535596E+00  4.697708353888E+00  2.341561584776E+00
   12    20 CA   -2.349039430278E+00 -6.575898765000E-03  2.383230407654E+00
   13    20 CA    2.334470770688E+00  2.381835871373E+00  4.759613226266E+00
   14    12 MG    4.654655887310E+00  4.697973062225E+00  4.694461293724E+00
   15    12 MG    6.460561585600E-02 -8.953619081400E-02  4.721189224333E+00
   16    20 CA   -2.358635600337E+00  2.391253538175E+00  7.054458031000E-03
   17    20 CA   -3.974067241500E-02  4.683215794730E+00 -6.124347642800E-02
   18    12 MG   -4.694874228081E+00 -6.475614983000E-02 -7.682873229500E-02
   19    12 MG    3.729336716000E-02 -2.350945526333E+00 -2.357304096137E+00
   20    12 MG    2.249305983668E+00 -1.392179779630E-01 -2.318963910317E+00
   21    20 CA   -2.349056871090E+00 -4.670246437379E+00 -2.379132071366E+00
   22    12 MG    2.354993105255E+00 -2.256482209715E+00 -1.471794667990E-01
   23    20 CA    4.664677079597E+00 -5.868097586600E-02 -4.317887183700E-02
   24    20 CA    4.394080806700E-02 -4.672992848990E+00 -6.753341296300E-02
   25    12 MG   -2.392934435296E+00 -2.326220511657E+00 -4.577383767894E+00
   26    20 CA    2.009257481300E-02 -2.396659044800E-02 -4.651066536302E+00
   27    20 CA   -4.663672451959E+00 -4.655634693859E+00 -4.688797079913E+00
   28     8 O     1.053278656660E-01 -6.752691199300E-02 -2.344837994688E+00
   29     8 O     2.196629732071E+00  2.350277525342E+00 -2.342591718348E+00
   30     8 O    -2.329996381016E+00 -2.329460433574E+00 -2.368381904506E+00
   31     8 O     2.334660430646E+00 -1.015044019480E-01 -8.303303968000E-02
   32     8 O     4.665132218592E+00  2.325647670568E+00 -1.096597633300E-02
   33     8 O     1.189080573950E-01 -2.330727130721E+00 -6.515200698900E-02
   34     8 O     4.675808206285E+00 -9.680437815700E-02  2.372419162721E+00
   35     8 O     7.003332908657E+00  2.343267989056E+00  2.437947721118E+00
   36     8 O     2.431343657764E+00 -2.322333926554E+00  2.454900334242E+00
   37     8 O    -2.971484140000E-03  2.349461575003E+00 -6.267848639700E-02
   38     8 O     2.324784911468E+00  4.757653322381E+00 -7.308571276800E-02
   39     8 O    -2.408992998917E+00  9.495505996000E-03 -2.604392673600E-02
   40     8 O     2.344604149300E+00  2.338607463361E+00  2.379241633898E+00
   41     8 O     4.665171037176E+00  4.671998687943E+00  2.384491074070E+00
   42     8 O     1.410488854600E-02 -3.375382509999E-04  2.409761026831E+00
   43     8 O     4.775568614899E+00  2.450584779851E+00  4.691967016188E+00
   44     8 O     7.020231318592E+00  4.716897668375E+00  4.700145079736E+00
   45     8 O     2.232697143895E+00 -9.749729376700E-02  4.787933331556E+00
   46     8 O    -1.007190298440E-01  4.661970336386E+00  2.398585168364E+00
   47     8 O     2.333821350784E+00  6.996158144758E+00  2.351083739737E+00
   48     8 O    -2.336221835737E+00  2.449030949451E+00  2.363034342515E+00
   49     8 O     2.292479368437E+00  4.779522269510E+00  4.730023791279E+00
   50     8 O     4.682799923432E+00  6.883808978611E+00  4.696273410743E+00
   51     8 O     3.496886585000E-03  2.371007605362E+00  4.690518174306E+00
   52     8 O     4.527267520248E+00  4.686344091030E+00  6.965692890724E+00
   53     8 O     7.115799872803E+00  7.013770891792E+00  6.980654553364E+00
   54     8 O     2.335663167927E+00  2.362167374726E+00  7.032782439348E+00
 WARNING **** CRYSTA **** TESTGEOM  DIRECTIVE - GEOMETRY EDITING COMPLETE
 TTTTTTTTTTTTTTTTTTTTTTTTTTTTTT END         TELAPSE        0.01 TCPU        0.01
 EEEEEEEEEE TERMINATION  DATE 10 03 2023 TIME 10:32:01.5
Fri 10 Mar 2023 10:32:01 GMT
Contents of temporary directory:
total 8
-rw-r--r--  1 brunocamino  admin  4027 10 Mar 10:32 fort.34
SCF abnormal end - no wf written in fort.9
geometry input file fort.34 saved as /Users/brunocamino/Desktop/Imperial/cmsg_icl/solid-solutions/./data/crystal/testgeom_opt/CaMgO_testgeom_3164.gui
temporary directory /Users/brunocamino/crystal/tmp removed
