date Fri 10 Mar 2023 10:30:42 GMT
hostname MacBook-Pro-8
system Darwin MacBook-Pro-8 21.6.0 Darwin Kernel Version 21.6.0: Mon Aug 22 20:20:05 PDT 2022; root:xnu-8020.140.49~2/RELEASE_ARM64_T8101 arm64
user brunocamino
output data in /Users/brunocamino/Desktop/Imperial/cmsg_icl/solid-solutions/./data/crystal/testgeom_opt/CaMgO_testgeom_2185.out
crystal executable in /Users/brunocamino/crystal
input data in /Users/brunocamino/Desktop/Imperial/cmsg_icl/solid-solutions/./data/crystal/testgeom_opt/CaMgO_testgeom_2185.d12
temporary directory /Users/brunocamino/crystal/tmp
external geometry input from /Users/brunocamino/Desktop/Imperial/cmsg_icl/solid-solutions/./data/crystal/testgeom_opt/CaMgO_testgeom_2185.gui
external geometry input saved in /Users/brunocamino/Desktop/Imperial/cmsg_icl/solid-solutions/./data/crystal/testgeom_opt/CaMgO_testgeom_2185_inp.gui
Bulk 
EXTERNAL
EXTPRT
TESTGEOM
END

         
 *******************************************************************************
 *                                                                             *
 *                               CRYSTAL17                                     *
 *                      public : 1.0.1 - Feb 1st, 2017                         *
 *                       HTTP://WWW.CRYSTAL.UNITO.IT                           *
 *                                                                             *
 *                              MAIN AUTHORS                                   *
 *                                                                             *
 *  R. DOVESI(1,11), V.R. SAUNDERS(2), C. ROETTI(1,11), R. ORLANDO(1,11),      *
 *  C.M. ZICOVICH-WILSON(1,3), F. PASCALE(4), B. CIVALLERI(1,11),              *
 *  K. DOLL(5), N.M. HARRISON(2,6), I.J. BUSH(7), Ph. D'ARCO(8),               *
 *  M. LLUNELL(9), M. CAUSA'(10), Y. NOEL(8), L. MASCHIO(1,11), A. ERBA(1,11)  *
 *  M. RE'RAT(14), S. CASASSA(1,11)                                            *
 *                                                                             *
 *        CONTRIBUTIONS TO THE CODE HAVE ALSO BEEN GIVEN BY                    *
 *                                                                             *
 *  M. FERRABONE(1,11), M. DE LA PIERRE(1,11), M. FERRERO(1,11),               *
 *  J. BAIMA(1,11), E. ALBANESE(1,11), M.F. PEINTINGER(12), R. BAST(13),       *
 *  B. KIRTMAN(15), V. LACIVITA(1,11), R. DEMICHELIS(1,16)                     *
 *  G. BRANDEBURG(17), S. SALUSTRO(1,11), G. SANSONE(1,11)                     *
 *  M.T. RUGGIERO(18)                                                          *
 *                                                                             *
 * (1) THEORETICAL CHEMISTRY GROUP - UNIVERSITA' DI TORINO - TORINO (ITALY)    *

 * (2) COMPUTATIONAL SCIENCE & ENGINEERING DEPARTMENT - STFC DARESBURY (UK)    *
 * (3) UNIVERSIDAD AUTONOMA DEL ESTADO DE MORELOS - CUERNAVACA (MEXICO)        *
 * (4) UNIVERSITE' DE LORRAINE - NANCY (FRANCE)                                *
 * (5) UNIVERSITAET STUTTGART- STUTTGART (GERMANY)                             *
 * (6) IMPERIAL COLLEGE - LONDON (UK)                                          *
 * (7) OXFORD E-RESEARCH CENTRE - OXFORD (UK)                                  *
 * (8) UPMC - SORBONNE UNIVERSITES - PARIS (FRANCE)                            *
 * (9) UNIVERSIDAD DE BARCELONA - BARCELONA (SPAIN)                            *
 *(10) UNIVERSITA' DI NAPOLI "FEDERICO II" - NAPOLI (ITALY)                    *
 *(11) NIS - NANOSTRUCTURED INTERFACES AND SURFACES - TORINO (ITALY)           *
 *(12) MPI FUER CHEMISCHE ENERGIEKONVERSION - MUELHEIM AN DER RUHR (GERMANY)   *
 *(13) UNIVERSITY OF TROMSO - TROMSO (NORWAY)                                  *
 *(14) UNIVERSITE' DE PAU ET DES PAYS DE L'ADOUR - PAU (FRANCE)                *
 *(15) UNIVERSITY OF CALIFORNIA SANTA BARBARA - SANTA BARBARA (USA)            *
 *(16) CURTIN UNIVERSITY - PERTH (AUSTRALIA)                                   *
 *(17) UNIVERSITY COLLEGE LONDON - LONDON (UK)                                 *
 *(18) CAMBRIDGE UNIVERSITY - CAMBRIDGE (UK)                                   *
 *                                                                             *
 *******************************************************************************
 EEEEEEEEEE STARTING  DATE 10 03 2023 TIME 10:30:42.4
 Bulk                                                                            

 GEOMETRY INPUT FROM EXTERNAL FILE (FORTRAN UNIT 34)
 3D - CRYSTAL 

 *******************************************************************************
 LATTICE PARAMETERS  (ANGSTROMS AND DEGREES) - PRIMITIVE CELL
       A          B          C        ALPHA      BETA     GAMMA        VOLUME
    9.91461    9.90648    9.89894    60.04908  59.99918  59.96964    687.585788
 INFORMATION **** CHKGRP **** SPGR WITH NO INVERSION

 NUMBER OF IRREDUCIBLE ATOMS IN THE CELL:   54

 CARTESIAN COORDINATES (ANGSTROM) - IRREDUCIBLE ATOMS AND SYMMETRY RELATED

 AT.IRR.  AT  AT.N.          X                   Y                   Z
     1     1    20   -8.645982682000E-03  7.095301940000E-04 -4.904573797800E-02
     2     2    20    2.343901652306E+00  2.337472628322E+00 -3.493388066500E-02
     3     3    20   -2.341686738380E+00 -2.333136322012E+00 -2.596558629800E-02
     4     4    20    2.362927542495E+00 -2.304656440000E-02  2.341347926987E+00
     5     5    20    4.705445523898E+00  2.301978580366E+00  2.311755322713E+00
     6     6    20   -2.540837022000E-03 -2.338205048883E+00  2.331396265973E+00
     7     7    20   -2.313108892241E+00 -2.688045879000E-02 -2.329793952392E+00
     8     8    20    3.251744202600E-02  2.327358309722E+00 -2.311611289907E+00
     9     9    12   -4.757070361325E+00 -2.290136440080E+00 -2.280399898212E+00
    10    10    20   -3.265815944300E-02  2.374827274517E+00  2.336063196462E+00
    11    11    20    2.305759794792E+00  4.732813678358E+00  2.373856580070E+00
    12    12    12   -2.313945199236E+00  4.291701452900E-02  2.288501057621E+00
    13    13    20    2.299522080931E+00  2.358626835238E+00  4.692079328132E+00
    14    14    20    4.665027198265E+00  4.703894278567E+00  4.729092136638E+00
    15    15    20   -4.483001297600E-02 -1.227387653000E-03  4.720393420354E+00
    16    16    12   -2.270022447602E+00  2.309708751340E+00  3.981208316400E-02
    17    17    12   -4.468431323700E-02  4.627849469120E+00 -2.259388597000E-03
    18    18    20   -4.716582419981E+00  2.134226124300E-02  3.095199108000E-02
    19    19    12    5.248341438100E-02 -2.280318888419E+00 -2.325015029602E+00
    20    20    12    2.335819373149E+00 -6.510474533600E-02 -2.383209503714E+00
    21    21    20   -2.357605358444E+00 -4.688778171992E+00 -2.350135661147E+00
    22    22    20    2.362921786526E+00 -2.348460164583E+00 -2.292619830900E-02
    23    23    12    4.788865603818E+00  3.597440861600E-02  4.563052473800E-02
    24    24    12   -2.975100717700E-02 -4.653916978616E+00 -2.281561336000E-03
    25    25    20   -2.303956257227E+00 -2.339757037894E+00 -4.699280878539E+00
    26    26    12   -9.319293237000E-03 -4.172348438200E-02 -4.724577224869E+00
    27    27    20   -4.666606908957E+00 -4.708685918442E+00 -4.654706745496E+00
    28    28     8    9.201071998800E-02 -1.141349743640E-01 -2.432696851484E+00
    29    29     8    2.324098344393E+00  2.337514745827E+00 -2.330178684315E+00
    30    30     8   -2.337338933859E+00 -2.335507559757E+00 -2.338881641368E+00
    31    31     8    2.436034580179E+00  3.753786632000E-03 -7.378556884800E-02
    32    32     8    4.774654430663E+00  2.246439133404E+00  4.880731731000E-03
    33    33     8   -2.631642030000E-03 -2.409865605635E+00 -7.651975554700E-02
    34    34     8    4.763098421779E+00 -4.782859841000E-03  2.277707715020E+00
    35    35     8    6.990085760642E+00  2.256632339603E+00  2.240157785456E+00
    36    36     8    2.309115588948E+00 -2.332829884147E+00  2.369849932443E+00
    37    37     8   -9.160356615600E-02  2.403157079566E+00  2.019957113200E-02
    38    38     8    2.211017466631E+00  4.671647632708E+00 -1.040080725500E-01
    39    39     8   -2.326414119498E+00  9.073426986800E-02  7.295262777700E-02
    40    40     8    2.346119650410E+00  2.338534483202E+00  2.351203374175E+00
    41    41     8    4.663270285279E+00  4.767156381022E+00  2.337448791575E+00
    42    42     8   -8.055689349500E-02  7.169513496000E-03  2.328970212643E+00
    43    43     8    4.676496749077E+00  2.325599280104E+00  4.754298821396E+00
    44    44     8    7.094851521427E+00  4.672536932366E+00  4.753941716460E+00
    45    45     8    2.331230972942E+00 -9.080601451100E-02  4.696183598577E+00
    46    46     8    6.109440771000E-03  4.757421151023E+00  2.338269237429E+00
    47    47     8    2.299130175511E+00  7.003622845178E+00  2.378159084491E+00
    48    48     8   -2.337027919925E+00  2.221835114558E+00  2.242161443784E+00
    49    49     8    2.254016762590E+00  4.770028741609E+00  4.695452490167E+00
    50    50     8    4.573009545316E+00  7.003809554582E+00  4.680261632966E+00
    51    51     8    3.027652101000E-03  2.427973847876E+00  4.757970565163E+00
    52    52     8    4.796019628636E+00  4.652838740244E+00  7.019314446371E+00
    53    53     8    6.876446641245E+00  6.972959170241E+00  7.100256119820E+00
    54    54     8    2.306575142441E+00  2.336933564629E+00  7.010733412574E+00

 SYMMETRY CHANGED DURING OLD RUN :  INFORMATION ON SPACE GROUP LOST 
 NUMBER OF SYMMETRY OPERATORS         :    1
 *******************************************************************************
 LATTICE PARAMETERS (ANGSTROMS AND DEGREES) - BOHR = 0.5291772083 ANGSTROM
 PRIMITIVE CELL - CENTRING CODE 1/0 VOLUME=   687.585788 - DENSITY  3.301 g/cm^3
         A              B              C           ALPHA      BETA       GAMMA 
     9.91460832     9.90647821     9.89894097    60.049083  59.999175  59.969638
 *******************************************************************************
 ATOMS IN THE ASYMMETRIC UNIT   54 - ATOMS IN THE UNIT CELL:   54
     ATOM                 X/A                 Y/B                 Z/C    
 *******************************************************************************
      1 T  20 CA   -2.828841329306E-03 -4.165826423770E-03  2.930616432477E-03
      2 T  20 CA   -3.011572748744E-03 -2.030064519910E-03  3.369245996413E-01
      3 T  20 CA   -1.178866089711E-03 -2.464693550675E-03 -3.321130529870E-01
      4 T  20 CA   -3.396919237595E-03  3.373249844422E-01  3.179578029683E-04
      5 T  20 CA   -6.817144545589E-03  3.364657210669E-01  3.358742324342E-01
      6 T  20 CA   -4.535941346470E-04  3.330210819564E-01 -3.333546531918E-01
      7 T  20 CA   -2.898309597673E-03 -3.293798814103E-01 -1.143241075541E-03
      8 T  20 CA   -1.049719258398E-03 -3.286955447674E-01  3.333127818749E-01
      9 T  12 MG    1.358282947168E-02 -3.387605518736E-01 -3.409568698752E-01
     10 T  20 CA    3.383407264326E-01 -5.268410016911E-03  5.436000664886E-04
     11 T  20 CA    3.423694294746E-01 -3.967627368963E-03  3.333529307677E-01
     12 T  12 MG    3.313980534843E-01 -5.048776975956E-03 -3.256227062744E-01
     13 T  20 CA    3.386729614131E-01  3.304188045778E-01 -1.894600161151E-03
     14 T  20 CA    3.398048169411E-01  3.345057784894E-01  3.319994685525E-01
     15 T  20 CA    3.396476366985E-01  3.335424555778E-01 -3.399766981462E-01
     16 T  12 MG    3.296982496744E-01 -3.241185245722E-01 -3.051818750041E-04
     17 T  12 MG    3.332619096163E-01 -3.337420892932E-01  3.272708868791E-01
     18 T  20 CA    3.404198873778E-01 -3.360466712870E-01 -3.379418401857E-01
     19 T  12 MG   -3.322243613431E-01  7.246104193744E-04  6.831358362891E-03
     20 T  12 MG   -3.412949261105E-01  1.439916628563E-03  3.323583089946E-01
     21 T  20 CA   -3.338350332253E-01 -1.185794145422E-03 -3.356090709995E-01
     22 T  20 CA   -3.378911667527E-01  3.347217034855E-01  2.977706943839E-03
     23 T  12 MG   -3.360299215383E-01  3.425770481748E-01  3.417390296561E-01
     24 T  12 MG   -3.301322535551E-01  3.299650866842E-01 -3.341299957878E-01
     25 T  20 CA   -3.375233493274E-01 -3.325961331805E-01  3.437988532682E-03
     26 T  12 MG   -3.391453825700E-01 -3.346403747313E-01  3.333376382908E-01
     27 T  20 CA   -3.347307497304E-01 -3.289713570057E-01 -3.377599816713E-01
     28 T   8 O    -1.881488935672E-01 -1.587811293584E-01  1.719458689888E-01
     29 T   8 O    -1.652317777704E-01 -1.671422466471E-01  4.992206336593E-01
     30 T   8 O    -1.665551464990E-01 -1.669406659649E-01 -1.670019443471E-01
     31 T   8 O    -1.788873890263E-01  1.683852376404E-01  1.797184329670E-01
     32 T   8 O    -1.801867418406E-01  1.808470215816E-01 -4.986024899294E-01
     33 T   8 O    -1.772302757598E-01  1.663995825810E-01 -1.667304303069E-01
     34 T   8 O    -1.779655028997E-01 -4.971625213142E-01  1.777839702664E-01
     35 T   8 O    -1.782450212661E-01  4.977038694839E-01 -4.988932228641E-01
     36 T   8 O    -1.623446609097E-01 -4.995843214427E-01 -1.704196088239E-01
     37 T   8 O     1.794632077082E-01 -1.766650916603E-01  1.635304224964E-01
     38 T   8 O     1.681113447894E-01 -1.830844865910E-01  4.989472680996E-01
     39 T   8 O     1.777452792507E-01 -1.673641988443E-01 -1.650767294525E-01
     40 T   8 O     1.670227990958E-01  1.682302269784E-01  1.669669962160E-01
     41 T   8 O     1.739349974917E-01  1.592935071015E-01 -4.930262218413E-01
     42 T   8 O     1.723033755002E-01  1.598375989396E-01 -1.713630098793E-01
     43 T   8 O     1.710732163689E-01 -4.930867352157E-01  1.612749667311E-01
     44 T   8 O     1.658873697413E-01 -4.880111084661E-01 -4.982673407819E-01
     45 T   8 O     1.619158740286E-01 -4.921551103878E-01 -1.747441021189E-01
     46 T   8 O    -4.942527028375E-01 -1.724411677963E-01  1.732118942558E-01
     47 T   8 O    -4.948105956163E-01 -1.662513867620E-01  4.946471398047E-01
     48 T   8 O     4.852249048895E-01 -1.655586590148E-01 -1.684514733840E-01
     49 T   8 O    -4.857658120358E-01  1.552561383062E-01  1.667206695354E-01
     50 T   8 O    -4.929909459466E-01  1.602585691323E-01  4.930551658706E-01
     51 T   8 O    -4.877471393420E-01  1.662139215550E-01 -1.658547565464E-01
     52 T   8 O     4.900895772949E-01 -4.891601834965E-01  1.743712057730E-01
     53 T   8 O    -4.870910240233E-01  4.995025087775E-01  4.829528068089E-01
     54 T   8 O    -4.980727063099E-01  4.978359605056E-01 -1.683173242000E-01

 T = ATOM BELONGING TO THE ASYMMETRIC UNIT
 *******************************************************************************
 * GEOMETRY EDITING - INPUT COORDINATES ARE GIVEN IN ANGSTROM         
 *******************************************************************************

 GCALCO - MAX INDICES DIRECT LATTICE VECTOR    14    14    14
 NO.OF VECTORS CREATED 6999 STARS 3500 RMAX   198.19320 BOHR

 GEOMETRY FOR WAVE FUNCTION - DIMENSIONALITY OF THE SYSTEM    3
 (NON PERIODIC DIRECTION: LATTICE PARAMETER FORMALLY SET TO 500)
 *******************************************************************************
 LATTICE PARAMETERS (ANGSTROMS AND DEGREES) - BOHR = 0.5291772083 ANGSTROM
 PRIMITIVE CELL - CENTRING CODE 1/0 VOLUME=   687.585788 - DENSITY  3.301 g/cm^3
         A              B              C           ALPHA      BETA       GAMMA 
     9.91460832     9.90647821     9.89894097    60.049083  59.999175  59.969638
 *******************************************************************************
 ATOMS IN THE ASYMMETRIC UNIT   54 - ATOMS IN THE UNIT CELL:   54
     ATOM                 X/A                 Y/B                 Z/C    
 *******************************************************************************
      1 T  20 CA   -2.828841329306E-03 -4.165826423770E-03  2.930616432477E-03
      2 T  20 CA   -3.011572748744E-03 -2.030064519910E-03  3.369245996413E-01
      3 T  20 CA   -1.178866089711E-03 -2.464693550676E-03 -3.321130529870E-01
      4 T  20 CA   -3.396919237596E-03  3.373249844422E-01  3.179578029683E-04
      5 T  20 CA   -6.817144545589E-03  3.364657210669E-01  3.358742324342E-01
      6 T  20 CA   -4.535941346471E-04  3.330210819564E-01 -3.333546531918E-01
      7 T  20 CA   -2.898309597673E-03 -3.293798814103E-01 -1.143241075541E-03
      8 T  20 CA   -1.049719258398E-03 -3.286955447674E-01  3.333127818749E-01
      9 T  12 MG    1.358282947168E-02 -3.387605518736E-01 -3.409568698752E-01
     10 T  20 CA    3.383407264326E-01 -5.268410016911E-03  5.436000664886E-04
     11 T  20 CA    3.423694294746E-01 -3.967627368963E-03  3.333529307677E-01
     12 T  12 MG    3.313980534843E-01 -5.048776975956E-03 -3.256227062744E-01
     13 T  20 CA    3.386729614131E-01  3.304188045778E-01 -1.894600161151E-03
     14 T  20 CA    3.398048169411E-01  3.345057784894E-01  3.319994685525E-01
     15 T  20 CA    3.396476366985E-01  3.335424555778E-01 -3.399766981462E-01
     16 T  12 MG    3.296982496744E-01 -3.241185245722E-01 -3.051818750040E-04
     17 T  12 MG    3.332619096163E-01 -3.337420892932E-01  3.272708868791E-01
     18 T  20 CA    3.404198873778E-01 -3.360466712870E-01 -3.379418401857E-01
     19 T  12 MG   -3.322243613431E-01  7.246104193744E-04  6.831358362891E-03
     20 T  12 MG   -3.412949261105E-01  1.439916628564E-03  3.323583089946E-01
     21 T  20 CA   -3.338350332253E-01 -1.185794145422E-03 -3.356090709995E-01
     22 T  20 CA   -3.378911667527E-01  3.347217034855E-01  2.977706943839E-03
     23 T  12 MG   -3.360299215383E-01  3.425770481748E-01  3.417390296561E-01
     24 T  12 MG   -3.301322535551E-01  3.299650866842E-01 -3.341299957878E-01
     25 T  20 CA   -3.375233493274E-01 -3.325961331805E-01  3.437988532682E-03
     26 T  12 MG   -3.391453825700E-01 -3.346403747313E-01  3.333376382908E-01
     27 T  20 CA   -3.347307497304E-01 -3.289713570057E-01 -3.377599816713E-01
     28 T   8 O    -1.881488935672E-01 -1.587811293584E-01  1.719458689888E-01
     29 T   8 O    -1.652317777704E-01 -1.671422466471E-01  4.992206336593E-01
     30 T   8 O    -1.665551464990E-01 -1.669406659649E-01 -1.670019443471E-01
     31 T   8 O    -1.788873890263E-01  1.683852376404E-01  1.797184329670E-01
     32 T   8 O    -1.801867418406E-01  1.808470215816E-01 -4.986024899294E-01
     33 T   8 O    -1.772302757598E-01  1.663995825810E-01 -1.667304303069E-01
     34 T   8 O    -1.779655028997E-01 -4.971625213142E-01  1.777839702664E-01
     35 T   8 O    -1.782450212661E-01  4.977038694839E-01 -4.988932228641E-01
     36 T   8 O    -1.623446609097E-01 -4.995843214427E-01 -1.704196088239E-01
     37 T   8 O     1.794632077082E-01 -1.766650916603E-01  1.635304224964E-01
     38 T   8 O     1.681113447894E-01 -1.830844865910E-01  4.989472680996E-01
     39 T   8 O     1.777452792507E-01 -1.673641988443E-01 -1.650767294525E-01
     40 T   8 O     1.670227990958E-01  1.682302269784E-01  1.669669962160E-01
     41 T   8 O     1.739349974917E-01  1.592935071015E-01 -4.930262218413E-01
     42 T   8 O     1.723033755002E-01  1.598375989396E-01 -1.713630098793E-01
     43 T   8 O     1.710732163689E-01 -4.930867352157E-01  1.612749667311E-01
     44 T   8 O     1.658873697413E-01 -4.880111084661E-01 -4.982673407819E-01
     45 T   8 O     1.619158740286E-01 -4.921551103878E-01 -1.747441021189E-01
     46 T   8 O    -4.942527028375E-01 -1.724411677963E-01  1.732118942558E-01
     47 T   8 O    -4.948105956163E-01 -1.662513867620E-01  4.946471398047E-01
     48 T   8 O     4.852249048895E-01 -1.655586590148E-01 -1.684514733840E-01
     49 T   8 O    -4.857658120358E-01  1.552561383062E-01  1.667206695354E-01
     50 T   8 O    -4.929909459466E-01  1.602585691323E-01  4.930551658706E-01
     51 T   8 O    -4.877471393420E-01  1.662139215550E-01 -1.658547565464E-01
     52 T   8 O     4.900895772949E-01 -4.891601834965E-01  1.743712057730E-01
     53 T   8 O    -4.870910240233E-01  4.995025087775E-01  4.829528068089E-01
     54 T   8 O    -4.980727063099E-01  4.978359605056E-01 -1.683173242000E-01

 T = ATOM BELONGING TO THE ASYMMETRIC UNIT

 ****    1 SYMMOPS - TRANSLATORS IN FRACTIONAL UNITS
 **** MATRICES AND TRANSLATORS IN THE CRYSTALLOGRAPHIC REFERENCE FRAME
   V INV                    ROTATION MATRICES                   TRANSLATORS
   1   1  1.00  0.00  0.00  0.00  1.00  0.00  0.00  0.00  1.00  0.00  0.00  0.00

 DIRECT LATTICE VECTORS CARTESIAN COMPONENTS (ANGSTROM)
          X                    Y                    Z
   0.120354993802E-02   0.700772567885E+01   0.701364651353E+01
   0.699831431037E+01  -0.435094165836E-02   0.701155392713E+01
   0.699893183512E+01   0.700028455573E+01   0.125290020920E-02


 CARTESIAN COORDINATES - PRIMITIVE CELL
 *******************************************************************************
 *      ATOM          X(ANGSTROM)         Y(ANGSTROM)         Z(ANGSTROM)
 *******************************************************************************
    1    20 CA   -8.645982682000E-03  7.095301940000E-04 -4.904573797800E-02
    2    20 CA    2.343901652306E+00  2.337472628322E+00 -3.493388066500E-02
    3    20 CA   -2.341686738380E+00 -2.333136322012E+00 -2.596558629800E-02
    4    20 CA    2.362927542495E+00 -2.304656440000E-02  2.341347926987E+00
    5    20 CA    4.705445523898E+00  2.301978580366E+00  2.311755322713E+00
    6    20 CA   -2.540837022000E-03 -2.338205048883E+00  2.331396265973E+00
    7    20 CA   -2.313108892241E+00 -2.688045879000E-02 -2.329793952392E+00
    8    20 CA    3.251744202600E-02  2.327358309722E+00 -2.311611289907E+00
    9    12 MG   -4.757070361325E+00 -2.290136440080E+00 -2.280399898212E+00
   10    20 CA   -3.265815944300E-02  2.374827274517E+00  2.336063196462E+00
   11    20 CA    2.305759794792E+00  4.732813678358E+00  2.373856580070E+00
   12    12 MG   -2.313945199236E+00  4.291701452900E-02  2.288501057621E+00
   13    20 CA    2.299522080931E+00  2.358626835238E+00  4.692079328132E+00
   14    20 CA    4.665027198265E+00  4.703894278567E+00  4.729092136638E+00
   15    20 CA   -4.483001297600E-02 -1.227387653000E-03  4.720393420354E+00
   16    12 MG   -2.270022447602E+00  2.309708751340E+00  3.981208316400E-02
   17    12 MG   -4.468431323700E-02  4.627849469120E+00 -2.259388597000E-03
   18    20 CA   -4.716582419981E+00  2.134226124300E-02  3.095199108000E-02
   19    12 MG    5.248341438100E-02 -2.280318888419E+00 -2.325015029602E+00
   20    12 MG    2.335819373149E+00 -6.510474533600E-02 -2.383209503714E+00
   21    20 CA   -2.357605358444E+00 -4.688778171992E+00 -2.350135661147E+00
   22    20 CA    2.362921786526E+00 -2.348460164583E+00 -2.292619830900E-02
   23    12 MG    4.788865603818E+00  3.597440861600E-02  4.563052473800E-02
   24    12 MG   -2.975100717700E-02 -4.653916978616E+00 -2.281561335999E-03
   25    20 CA   -2.303956257227E+00 -2.339757037894E+00 -4.699280878539E+00
   26    12 MG   -9.319293237000E-03 -4.172348438200E-02 -4.724577224869E+00
   27    20 CA   -4.666606908957E+00 -4.708685918442E+00 -4.654706745496E+00
   28     8 O     9.201071998800E-02 -1.141349743640E-01 -2.432696851484E+00
   29     8 O     2.324098344393E+00  2.337514745827E+00 -2.330178684315E+00
   30     8 O    -2.337338933859E+00 -2.335507559757E+00 -2.338881641368E+00
   31     8 O     2.436034580179E+00  3.753786632000E-03 -7.378556884800E-02
   32     8 O     4.774654430663E+00  2.246439133404E+00  4.880731731000E-03
   33     8 O    -2.631642030000E-03 -2.409865605635E+00 -7.651975554700E-02
   34     8 O     4.763098421779E+00 -4.782859841000E-03  2.277707715020E+00
   35     8 O     6.990085760642E+00  2.256632339603E+00  2.240157785456E+00
   36     8 O     2.309115588948E+00 -2.332829884147E+00  2.369849932443E+00
   37     8 O    -9.160356615600E-02  2.403157079566E+00  2.019957113200E-02
   38     8 O     2.211017466631E+00  4.671647632708E+00 -1.040080725500E-01
   39     8 O    -2.326414119498E+00  9.073426986800E-02  7.295262777700E-02
   40     8 O     2.346119650410E+00  2.338534483202E+00  2.351203374175E+00
   41     8 O     4.663270285279E+00  4.767156381022E+00  2.337448791575E+00
   42     8 O    -8.055689349500E-02  7.169513495999E-03  2.328970212643E+00
   43     8 O     4.676496749077E+00  2.325599280104E+00  4.754298821396E+00
   44     8 O     7.094851521427E+00  4.672536932366E+00  4.753941716460E+00
   45     8 O     2.331230972942E+00 -9.080601451100E-02  4.696183598577E+00
   46     8 O     6.109440771000E-03  4.757421151023E+00  2.338269237429E+00
   47     8 O     2.299130175511E+00  7.003622845178E+00  2.378159084491E+00
   48     8 O    -2.337027919925E+00  2.221835114558E+00  2.242161443784E+00
   49     8 O     2.254016762590E+00  4.770028741609E+00  4.695452490167E+00
   50     8 O     4.573009545316E+00  7.003809554582E+00  4.680261632966E+00
   51     8 O     3.027652101000E-03  2.427973847876E+00  4.757970565163E+00
   52     8 O     4.796019628636E+00  4.652838740244E+00  7.019314446371E+00
   53     8 O     6.876446641245E+00  6.972959170241E+00  7.100256119820E+00
   54     8 O     2.306575142441E+00  2.336933564629E+00  7.010733412574E+00
 WARNING **** CRYSTA **** TESTGEOM  DIRECTIVE - GEOMETRY EDITING COMPLETE
 TTTTTTTTTTTTTTTTTTTTTTTTTTTTTT END         TELAPSE        0.01 TCPU        0.01
 EEEEEEEEEE TERMINATION  DATE 10 03 2023 TIME 10:30:42.4
Fri 10 Mar 2023 10:30:42 GMT
Contents of temporary directory:
total 8
-rw-r--r--  1 brunocamino  admin  4027 10 Mar 10:30 fort.34
SCF abnormal end - no wf written in fort.9
geometry input file fort.34 saved as /Users/brunocamino/Desktop/Imperial/cmsg_icl/solid-solutions/./data/crystal/testgeom_opt/CaMgO_testgeom_2185.gui
temporary directory /Users/brunocamino/crystal/tmp removed
