date Fri 10 Mar 2023 10:29:53 GMT
hostname MacBook-Pro-8
system Darwin MacBook-Pro-8 21.6.0 Darwin Kernel Version 21.6.0: Mon Aug 22 20:20:05 PDT 2022; root:xnu-8020.140.49~2/RELEASE_ARM64_T8101 arm64
user brunocamino
output data in /Users/brunocamino/Desktop/Imperial/cmsg_icl/solid-solutions/./data/crystal/testgeom_opt/CaMgO_testgeom_1557.out
crystal executable in /Users/brunocamino/crystal
input data in /Users/brunocamino/Desktop/Imperial/cmsg_icl/solid-solutions/./data/crystal/testgeom_opt/CaMgO_testgeom_1557.d12
temporary directory /Users/brunocamino/crystal/tmp
external geometry input from /Users/brunocamino/Desktop/Imperial/cmsg_icl/solid-solutions/./data/crystal/testgeom_opt/CaMgO_testgeom_1557.gui
external geometry input saved in /Users/brunocamino/Desktop/Imperial/cmsg_icl/solid-solutions/./data/crystal/testgeom_opt/CaMgO_testgeom_1557_inp.gui
Bulk 
EXTERNAL
EXTPRT
TESTGEOM
END

         
 *******************************************************************************
 *                                                                             *
 *                               CRYSTAL17                                     *
 *                      public : 1.0.1 - Feb 1st, 2017                         *
 *                       HTTP://WWW.CRYSTAL.UNITO.IT                           *
 *                                                                             *
 *                              MAIN AUTHORS                                   *
 *                                                                             *
 *  R. DOVESI(1,11), V.R. SAUNDERS(2), C. ROETTI(1,11), R. ORLANDO(1,11),      *
 *  C.M. ZICOVICH-WILSON(1,3), F. PASCALE(4), B. CIVALLERI(1,11),              *
 *  K. DOLL(5), N.M. HARRISON(2,6), I.J. BUSH(7), Ph. D'ARCO(8),               *
 *  M. LLUNELL(9), M. CAUSA'(10), Y. NOEL(8), L. MASCHIO(1,11), A. ERBA(1,11)  *
 *  M. RE'RAT(14), S. CASASSA(1,11)                                            *
 *                                                                             *
 *        CONTRIBUTIONS TO THE CODE HAVE ALSO BEEN GIVEN BY                    *
 *                                                                             *
 *  M. FERRABONE(1,11), M. DE LA PIERRE(1,11), M. FERRERO(1,11),               *
 *  J. BAIMA(1,11), E. ALBANESE(1,11), M.F. PEINTINGER(12), R. BAST(13),       *
 *  B. KIRTMAN(15), V. LACIVITA(1,11), R. DEMICHELIS(1,16)                     *
 *  G. BRANDEBURG(17), S. SALUSTRO(1,11), G. SANSONE(1,11)                     *
 *  M.T. RUGGIERO(18)                                                          *
 *                                                                             *
 * (1) THEORETICAL CHEMISTRY GROUP - UNIVERSITA' DI TORINO - TORINO (ITALY)    *

 * (2) COMPUTATIONAL SCIENCE & ENGINEERING DEPARTMENT - STFC DARESBURY (UK)    *
 * (3) UNIVERSIDAD AUTONOMA DEL ESTADO DE MORELOS - CUERNAVACA (MEXICO)        *
 * (4) UNIVERSITE' DE LORRAINE - NANCY (FRANCE)                                *
 * (5) UNIVERSITAET STUTTGART- STUTTGART (GERMANY)                             *
 * (6) IMPERIAL COLLEGE - LONDON (UK)                                          *
 * (7) OXFORD E-RESEARCH CENTRE - OXFORD (UK)                                  *
 * (8) UPMC - SORBONNE UNIVERSITES - PARIS (FRANCE)                            *
 * (9) UNIVERSIDAD DE BARCELONA - BARCELONA (SPAIN)                            *
 *(10) UNIVERSITA' DI NAPOLI "FEDERICO II" - NAPOLI (ITALY)                    *
 *(11) NIS - NANOSTRUCTURED INTERFACES AND SURFACES - TORINO (ITALY)           *
 *(12) MPI FUER CHEMISCHE ENERGIEKONVERSION - MUELHEIM AN DER RUHR (GERMANY)   *
 *(13) UNIVERSITY OF TROMSO - TROMSO (NORWAY)                                  *
 *(14) UNIVERSITE' DE PAU ET DES PAYS DE L'ADOUR - PAU (FRANCE)                *
 *(15) UNIVERSITY OF CALIFORNIA SANTA BARBARA - SANTA BARBARA (USA)            *
 *(16) CURTIN UNIVERSITY - PERTH (AUSTRALIA)                                   *
 *(17) UNIVERSITY COLLEGE LONDON - LONDON (UK)                                 *
 *(18) CAMBRIDGE UNIVERSITY - CAMBRIDGE (UK)                                   *
 *                                                                             *
 *******************************************************************************
 EEEEEEEEEE STARTING  DATE 10 03 2023 TIME 10:29:53.1
 Bulk                                                                            

 GEOMETRY INPUT FROM EXTERNAL FILE (FORTRAN UNIT 34)
 3D - CRYSTAL 

 *******************************************************************************
 LATTICE PARAMETERS  (ANGSTROMS AND DEGREES) - PRIMITIVE CELL
       A          B          C        ALPHA      BETA     GAMMA        VOLUME
    9.92436    9.91596    9.91731    60.05724  60.01342  60.07585    690.869520
 INFORMATION **** CHKGRP **** SPGR WITH NO INVERSION

 NUMBER OF IRREDUCIBLE ATOMS IN THE CELL:   54

 CARTESIAN COORDINATES (ANGSTROM) - IRREDUCIBLE ATOMS AND SYMMETRY RELATED

 AT.IRR.  AT  AT.N.          X                   Y                   Z
     1     1    20    8.448620144000E-03  1.182448635200E-02 -2.790429736900E-02
     2     2    20    2.369332349808E+00  2.326884947533E+00 -7.328728320400E-02
     3     3    20   -2.343920731343E+00 -2.368985655509E+00 -4.502949715600E-02
     4     4    20    2.339556381382E+00 -1.894456997800E-02  2.348365441448E+00
     5     5    20    4.685815012687E+00  2.321286979990E+00  2.323171025358E+00
     6     6    20    6.465360606000E-03 -2.332915079530E+00  2.382626634657E+00
     7     7    20   -2.333470970374E+00 -1.451152145000E-02 -2.324653703723E+00
     8     8    20    2.788368402500E-02  2.350618048752E+00 -2.359152915328E+00
     9     9    12   -4.652126415533E+00 -2.309290419185E+00 -2.323611673014E+00
    10    10    20   -4.777908548700E-02  2.347753362799E+00  2.383435999868E+00
    11    11    20    2.309659790149E+00  4.713121066867E+00  2.387564975372E+00
    12    12    20   -2.356088588614E+00  1.564743930300E-02  2.422474693662E+00
    13    13    20    2.329908762288E+00  2.367406510661E+00  4.687958145949E+00
    14    14    12    4.682280184250E+00  4.674264310854E+00  4.739786602569E+00
    15    15    12   -8.422879538000E-02 -6.707942952400E-02  4.678429808027E+00
    16    16    12   -2.337438601583E+00  2.363046585301E+00 -7.273139310000E-02
    17    17    20   -5.624656544400E-02  4.709950967147E+00 -1.358669446200E-02
    18    18    20   -4.714039513423E+00  4.646987925000E-03 -1.107194063500E-02
    19    19    12    7.989687316000E-03 -2.251396093689E+00 -2.348817153332E+00
    20    20    12    2.351822598618E+00 -8.611525032200E-02 -2.336331283562E+00
    21    21    12   -2.297307087784E+00 -4.660154921944E+00 -2.295988008424E+00
    22    22    20    2.396815093970E+00 -2.328322755689E+00 -7.272967106700E-02
    23    23    12    4.730390232395E+00  1.242831707300E-01 -1.193611425230E-01
    24    24    20   -1.424207313200E-02 -4.726988352561E+00 -4.048738687200E-02
    25    25    20   -2.317605063878E+00 -2.351313090095E+00 -4.670528038984E+00
    26    26    12    5.239653848000E-03 -2.854376175000E-02 -4.612554803643E+00
    27    27    20   -4.651322230482E+00 -4.697930724529E+00 -4.617612180111E+00
    28    28     8    7.123667008600E-02 -8.735312978700E-02 -2.393836720223E+00
    29    29     8    2.438805611280E+00  2.352683156388E+00 -2.336936058369E+00
    30    30     8   -2.341338109979E+00 -2.414655869684E+00 -2.335750354735E+00
    31    31     8    2.397093736045E+00  8.648840130000E-03 -6.481121569300E-02
    32    32     8    4.665192098750E+00  2.240826835103E+00 -1.084019383140E-01
    33    33     8   -6.710378237000E-03 -2.343089147091E+00 -1.033835894480E-01
    34    34     8    4.760334504570E+00  8.476309420000E-03  2.308144482387E+00
    35    35     8    7.012094464550E+00  2.250289802822E+00  2.337683326000E+00
    36    36     8    2.366036698220E+00 -2.343480480323E+00  2.380302867758E+00
    37    37     8   -9.322340772700E-02  2.343294069404E+00 -2.070091250300E-02
    38    38     8    2.303244691448E+00  4.677908484455E+00 -5.973456813600E-02
    39    39     8   -2.346908739417E+00  6.984836828800E-02  6.991141661000E-03
    40    40     8    2.320285291135E+00  2.343970315607E+00  2.365437331840E+00
    41    41     8    4.691230770192E+00  4.670933354114E+00  2.384924907514E+00
    42    42     8    1.198902492200E-02 -1.516955154000E-03  2.402099653476E+00
    43    43     8    4.684166564624E+00  2.409469900286E+00  4.741268973189E+00
    44    44     8    6.984508979778E+00  4.787068517175E+00  4.679735521899E+00
    45    45     8    2.254988580535E+00 -9.723770414300E-02  4.679097303007E+00
    46    46     8   -6.005948564000E-03  4.780609408591E+00  2.448987188731E+00
    47    47     8    2.247972993000E+00  7.014502060015E+00  2.424616553800E+00
    48    48     8   -2.343452454214E+00  2.332026716750E+00  2.382075570825E+00
    49    49     8    2.346996898227E+00  4.782190782871E+00  4.662997136456E+00
    50    50     8    4.679778579328E+00  6.977480471804E+00  4.770083953658E+00
    51    51     8   -1.036116675980E-01  2.325522732772E+00  4.668624271653E+00
    52    52     8    4.661683466667E+00  4.648594705474E+00  6.898198931386E+00
    53    53     8    6.891047704687E+00  7.013788470916E+00  6.981146433007E+00
    54    54     8    2.439278300479E+00  2.336801465515E+00  7.010763282103E+00

 SYMMETRY CHANGED DURING OLD RUN :  INFORMATION ON SPACE GROUP LOST 
 NUMBER OF SYMMETRY OPERATORS         :    1
 *******************************************************************************
 LATTICE PARAMETERS (ANGSTROMS AND DEGREES) - BOHR = 0.5291772083 ANGSTROM
 PRIMITIVE CELL - CENTRING CODE 1/0 VOLUME=   690.869520 - DENSITY  3.286 g/cm^3
         A              B              C           ALPHA      BETA       GAMMA 
     9.92435538     9.91595933     9.91730810    60.057236  60.013424  60.075848
 *******************************************************************************
 ATOMS IN THE ASYMMETRIC UNIT   54 - ATOMS IN THE UNIT CELL:   54
     ATOM                 X/A                 Y/B                 Z/C    
 *******************************************************************************
      1 T  20 CA   -1.749471814286E-03 -2.228094152816E-03  3.433671292322E-03
      2 T  20 CA   -8.505296968444E-03 -1.777191257374E-03  3.399817240606E-01
      3 T  20 CA   -4.731677606868E-03 -1.852413338016E-03 -3.327405370537E-01
      4 T  20 CA   -6.562910237007E-04  3.355981080615E-01 -1.952199741121E-03
      5 T  20 CA   -3.141057425395E-03  3.346554099108E-01  3.339093087110E-01
      6 T  20 CA    3.404495409519E-03  3.362584130970E-01 -3.356491130138E-01
      7 T  20 CA   -4.670615891221E-04 -3.310941516143E-01 -1.688986265297E-03
      8 T  20 CA   -2.919424404001E-03 -3.333946633953E-01  3.376865824584E-01
      9 T  12 MG    1.562983695757E-03 -3.331379566753E-01 -3.306215508829E-01
     10 T  20 CA    3.402570203837E-01 -4.475177948953E-04 -5.876524625554E-03
     11 T  20 CA    3.408534696694E-01 -2.900483936425E-04  3.304842113270E-01
     12 T  20 CA    3.416029018454E-01  3.610217158669E-03 -3.394405540345E-01
     13 T  20 CA    3.365050796678E-01  3.319983855141E-01  7.651104857619E-04
     14 T  12 MG    3.367001907098E-01  3.393567311450E-01  3.291941990483E-01
     15 T  12 MG    3.346467417769E-01  3.323289779619E-01 -3.441795592306E-01
     16 T  12 MG    3.294162291089E-01 -3.399142543739E-01  7.053845219441E-03
     17 T  20 CA    3.380520237468E-01 -3.399577164543E-01  3.327434060744E-01
     18 T  20 CA    3.353690569059E-01 -3.372430071479E-01 -3.348640674775E-01
     19 T  12 MG   -3.281014679593E-01 -6.774372123194E-03  7.443151036303E-03
     20 T  12 MG   -3.401721054157E-01  7.239254413808E-03  3.279739311745E-01
     21 T  12 MG   -3.314396405679E-01  3.933078070181E-03 -3.323536615803E-01
     22 T  20 CA   -3.415429086718E-01  3.313072204526E-01  1.001949092350E-02
     23 T  12 MG   -3.366588007967E-01  3.199395047175E-01  3.545161009444E-01
     24 T  20 CA   -3.380959678547E-01  3.322880311481E-01 -3.351285649373E-01
     25 T  20 CA   -3.349946962826E-01 -3.310229511394E-01  1.704895921179E-05
     26 T  12 MG   -3.311264182811E-01 -3.264634738858E-01  3.270381600487E-01
     27 T  20 CA   -3.318819934119E-01 -3.267553361772E-01 -3.373813539466E-01
     28 T   8 O    -1.818897366997E-01 -1.593843640663E-01  1.694391225314E-01
     29 T   8 O    -1.729429841947E-01 -1.600526023463E-01 -4.919154454780E-01
     30 T   8 O    -1.714168950197E-01 -1.617445539344E-01 -1.725711634145E-01
     31 T   8 O    -1.747723760923E-01  1.656828806020E-01  1.760835546415E-01
     32 T   8 O    -1.806857870713E-01  1.655404544959E-01  4.999818871852E-01
     33 T   8 O    -1.735509827929E-01  1.587943313351E-01 -1.601555770756E-01
     34 T   8 O    -1.740282332964E-01 -4.966121056686E-01  1.754053707998E-01
     35 T   8 O    -1.728806132610E-01 -4.933907811699E-01  4.936147969068E-01
     36 T   8 O    -1.656081843024E-01 -4.949123584244E-01 -1.680627058090E-01
     37 T   8 O     1.718417010971E-01 -1.747814502357E-01  1.618900964444E-01
     38 T   8 O     1.643941973964E-01 -1.727312997076E-01 -4.980840571576E-01
     39 T   8 O     1.726599557121E-01 -1.718098669467E-01 -1.627900809237E-01
     40 T   8 O     1.700046156183E-01  1.673873221563E-01  1.639157629471E-01
     41 T   8 O     1.680017382696E-01  1.723342835442E-01  4.974067093447E-01
     42 T   8 O     1.702283976181E-01  1.722282703838E-01 -1.704319674647E-01
     43 T   8 O     1.755792695408E-01 -4.993276399742E-01  1.677602121964E-01
     44 T   8 O     1.764336710638E-01  4.912072083757E-01 -4.943972906499E-01
     45 T   8 O     1.659036357417E-01 -4.986863380498E-01 -1.796538303000E-01
     46 T   8 O    -4.850010497924E-01 -1.658235199559E-01  1.658738003156E-01
     47 T   8 O    -4.884168758148E-01 -1.657242869235E-01  4.875183785557E-01
     48 T   8 O    -4.974150673169E-01 -1.631134059605E-01 -1.705206054036E-01
     49 T   8 O    -4.947303894975E-01  1.596942074776E-01  1.759177527050E-01
     50 T   8 O    -4.971373205321E-01  1.775304640235E-01  4.910588335186E-01
     51 T   8 O    -4.944882400458E-01  1.600825060564E-01 -1.742877462130E-01
     52 T   8 O     4.901651825119E-01  4.936048427040E-01  1.720834763330E-01
     53 T   8 O    -4.945095605674E-01  4.902622570777E-01  4.936867687418E-01
     54 T   8 O     4.920760188777E-01 -4.924146385907E-01 -1.591493222536E-01

 T = ATOM BELONGING TO THE ASYMMETRIC UNIT
 *******************************************************************************
 * GEOMETRY EDITING - INPUT COORDINATES ARE GIVEN IN ANGSTROM         
 *******************************************************************************

 GCALCO - MAX INDICES DIRECT LATTICE VECTOR    14    14    14
 NO.OF VECTORS CREATED 6999 STARS 3500 RMAX   198.50776 BOHR

 GEOMETRY FOR WAVE FUNCTION - DIMENSIONALITY OF THE SYSTEM    3
 (NON PERIODIC DIRECTION: LATTICE PARAMETER FORMALLY SET TO 500)
 *******************************************************************************
 LATTICE PARAMETERS (ANGSTROMS AND DEGREES) - BOHR = 0.5291772083 ANGSTROM
 PRIMITIVE CELL - CENTRING CODE 1/0 VOLUME=   690.869520 - DENSITY  3.286 g/cm^3
         A              B              C           ALPHA      BETA       GAMMA 
     9.92435538     9.91595933     9.91730810    60.057236  60.013424  60.075848
 *******************************************************************************
 ATOMS IN THE ASYMMETRIC UNIT   54 - ATOMS IN THE UNIT CELL:   54
     ATOM                 X/A                 Y/B                 Z/C    
 *******************************************************************************
      1 T  20 CA   -1.749471814286E-03 -2.228094152816E-03  3.433671292322E-03
      2 T  20 CA   -8.505296968444E-03 -1.777191257374E-03  3.399817240606E-01
      3 T  20 CA   -4.731677606868E-03 -1.852413338016E-03 -3.327405370537E-01
      4 T  20 CA   -6.562910237007E-04  3.355981080615E-01 -1.952199741121E-03
      5 T  20 CA   -3.141057425395E-03  3.346554099108E-01  3.339093087110E-01
      6 T  20 CA    3.404495409519E-03  3.362584130970E-01 -3.356491130138E-01
      7 T  20 CA   -4.670615891221E-04 -3.310941516143E-01 -1.688986265297E-03
      8 T  20 CA   -2.919424404001E-03 -3.333946633953E-01  3.376865824584E-01
      9 T  12 MG    1.562983695757E-03 -3.331379566753E-01 -3.306215508829E-01
     10 T  20 CA    3.402570203837E-01 -4.475177948954E-04 -5.876524625554E-03
     11 T  20 CA    3.408534696694E-01 -2.900483936425E-04  3.304842113270E-01
     12 T  20 CA    3.416029018454E-01  3.610217158669E-03 -3.394405540345E-01
     13 T  20 CA    3.365050796678E-01  3.319983855141E-01  7.651104857618E-04
     14 T  12 MG    3.367001907098E-01  3.393567311450E-01  3.291941990483E-01
     15 T  12 MG    3.346467417769E-01  3.323289779619E-01 -3.441795592306E-01
     16 T  12 MG    3.294162291089E-01 -3.399142543739E-01  7.053845219441E-03
     17 T  20 CA    3.380520237468E-01 -3.399577164543E-01  3.327434060744E-01
     18 T  20 CA    3.353690569059E-01 -3.372430071479E-01 -3.348640674775E-01
     19 T  12 MG   -3.281014679593E-01 -6.774372123194E-03  7.443151036303E-03
     20 T  12 MG   -3.401721054157E-01  7.239254413809E-03  3.279739311745E-01
     21 T  12 MG   -3.314396405679E-01  3.933078070181E-03 -3.323536615803E-01
     22 T  20 CA   -3.415429086718E-01  3.313072204526E-01  1.001949092350E-02
     23 T  12 MG   -3.366588007967E-01  3.199395047175E-01  3.545161009444E-01
     24 T  20 CA   -3.380959678547E-01  3.322880311481E-01 -3.351285649373E-01
     25 T  20 CA   -3.349946962826E-01 -3.310229511394E-01  1.704895921173E-05
     26 T  12 MG   -3.311264182811E-01 -3.264634738858E-01  3.270381600487E-01
     27 T  20 CA   -3.318819934119E-01 -3.267553361772E-01 -3.373813539466E-01
     28 T   8 O    -1.818897366997E-01 -1.593843640663E-01  1.694391225314E-01
     29 T   8 O    -1.729429841947E-01 -1.600526023463E-01 -4.919154454780E-01
     30 T   8 O    -1.714168950197E-01 -1.617445539344E-01 -1.725711634145E-01
     31 T   8 O    -1.747723760923E-01  1.656828806020E-01  1.760835546415E-01
     32 T   8 O    -1.806857870713E-01  1.655404544959E-01  4.999818871852E-01
     33 T   8 O    -1.735509827929E-01  1.587943313351E-01 -1.601555770756E-01
     34 T   8 O    -1.740282332964E-01 -4.966121056686E-01  1.754053707998E-01
     35 T   8 O    -1.728806132610E-01 -4.933907811699E-01  4.936147969068E-01
     36 T   8 O    -1.656081843024E-01 -4.949123584244E-01 -1.680627058090E-01
     37 T   8 O     1.718417010971E-01 -1.747814502357E-01  1.618900964444E-01
     38 T   8 O     1.643941973964E-01 -1.727312997076E-01 -4.980840571576E-01
     39 T   8 O     1.726599557121E-01 -1.718098669467E-01 -1.627900809237E-01
     40 T   8 O     1.700046156183E-01  1.673873221563E-01  1.639157629471E-01
     41 T   8 O     1.680017382696E-01  1.723342835442E-01  4.974067093447E-01
     42 T   8 O     1.702283976181E-01  1.722282703838E-01 -1.704319674647E-01
     43 T   8 O     1.755792695408E-01 -4.993276399742E-01  1.677602121964E-01
     44 T   8 O     1.764336710638E-01  4.912072083757E-01 -4.943972906499E-01
     45 T   8 O     1.659036357417E-01 -4.986863380498E-01 -1.796538303000E-01
     46 T   8 O    -4.850010497924E-01 -1.658235199559E-01  1.658738003156E-01
     47 T   8 O    -4.884168758148E-01 -1.657242869235E-01  4.875183785557E-01
     48 T   8 O    -4.974150673169E-01 -1.631134059605E-01 -1.705206054036E-01
     49 T   8 O    -4.947303894975E-01  1.596942074776E-01  1.759177527050E-01
     50 T   8 O    -4.971373205321E-01  1.775304640235E-01  4.910588335186E-01
     51 T   8 O    -4.944882400458E-01  1.600825060564E-01 -1.742877462130E-01
     52 T   8 O     4.901651825119E-01  4.936048427040E-01  1.720834763330E-01
     53 T   8 O    -4.945095605674E-01  4.902622570777E-01  4.936867687418E-01
     54 T   8 O     4.920760188777E-01 -4.924146385907E-01 -1.591493222536E-01

 T = ATOM BELONGING TO THE ASYMMETRIC UNIT

 ****    1 SYMMOPS - TRANSLATORS IN FRACTIONAL UNITS
 **** MATRICES AND TRANSLATORS IN THE CRYSTALLOGRAPHIC REFERENCE FRAME
   V INV                    ROTATION MATRICES                   TRANSLATORS
   1   1  1.00  0.00  0.00  0.00  1.00  0.00  0.00  0.00  1.00  0.00  0.00  0.00

 DIRECT LATTICE VECTORS CARTESIAN COMPONENTS (ANGSTROM)
          X                    Y                    Z
  -0.102089944211E-01   0.702117610689E+01   0.701397259873E+01
   0.701203481395E+01  -0.188502742817E-02   0.701124907450E+01
   0.700539787198E+01   0.701978552503E+01  -0.344439916008E-02


 CARTESIAN COORDINATES - PRIMITIVE CELL
 *******************************************************************************
 *      ATOM          X(ANGSTROM)         Y(ANGSTROM)         Z(ANGSTROM)
 *******************************************************************************
    1    20 CA    8.448620144000E-03  1.182448635200E-02 -2.790429736900E-02
    2    20 CA    2.369332349808E+00  2.326884947533E+00 -7.328728320400E-02
    3    20 CA   -2.343920731343E+00 -2.368985655509E+00 -4.502949715600E-02
    4    20 CA    2.339556381382E+00 -1.894456997800E-02  2.348365441448E+00
    5    20 CA    4.685815012687E+00  2.321286979990E+00  2.323171025358E+00
    6    20 CA    6.465360606000E-03 -2.332915079530E+00  2.382626634657E+00
    7    20 CA   -2.333470970374E+00 -1.451152145000E-02 -2.324653703723E+00
    8    20 CA    2.788368402500E-02  2.350618048752E+00 -2.359152915328E+00
    9    12 MG   -4.652126415533E+00 -2.309290419185E+00 -2.323611673014E+00
   10    20 CA   -4.777908548700E-02  2.347753362799E+00  2.383435999868E+00
   11    20 CA    2.309659790149E+00  4.713121066867E+00  2.387564975372E+00
   12    20 CA   -2.356088588614E+00  1.564743930300E-02  2.422474693662E+00
   13    20 CA    2.329908762288E+00  2.367406510661E+00  4.687958145949E+00
   14    12 MG    4.682280184250E+00  4.674264310854E+00  4.739786602569E+00
   15    12 MG   -8.422879538000E-02 -6.707942952400E-02  4.678429808027E+00
   16    12 MG   -2.337438601583E+00  2.363046585301E+00 -7.273139310000E-02
   17    20 CA   -5.624656544400E-02  4.709950967147E+00 -1.358669446200E-02
   18    20 CA   -4.714039513423E+00  4.646987925001E-03 -1.107194063500E-02
   19    12 MG    7.989687316000E-03 -2.251396093689E+00 -2.348817153332E+00
   20    12 MG    2.351822598618E+00 -8.611525032200E-02 -2.336331283562E+00
   21    12 MG   -2.297307087784E+00 -4.660154921944E+00 -2.295988008424E+00
   22    20 CA    2.396815093970E+00 -2.328322755689E+00 -7.272967106700E-02
   23    12 MG    4.730390232395E+00  1.242831707300E-01 -1.193611425230E-01
   24    20 CA   -1.424207313200E-02 -4.726988352561E+00 -4.048738687200E-02
   25    20 CA   -2.317605063878E+00 -2.351313090095E+00 -4.670528038984E+00
   26    12 MG    5.239653848001E-03 -2.854376175000E-02 -4.612554803643E+00
   27    20 CA   -4.651322230482E+00 -4.697930724529E+00 -4.617612180111E+00
   28     8 O     7.123667008600E-02 -8.735312978700E-02 -2.393836720223E+00
   29     8 O     2.438805611280E+00  2.352683156388E+00 -2.336936058369E+00
   30     8 O    -2.341338109979E+00 -2.414655869684E+00 -2.335750354735E+00
   31     8 O     2.397093736045E+00  8.648840130000E-03 -6.481121569300E-02
   32     8 O     4.665192098750E+00  2.240826835103E+00 -1.084019383140E-01
   33     8 O    -6.710378237000E-03 -2.343089147091E+00 -1.033835894480E-01
   34     8 O     4.760334504570E+00  8.476309420000E-03  2.308144482387E+00
   35     8 O     7.012094464550E+00  2.250289802822E+00  2.337683326000E+00
   36     8 O     2.366036698220E+00 -2.343480480323E+00  2.380302867758E+00
   37     8 O    -9.322340772700E-02  2.343294069404E+00 -2.070091250300E-02
   38     8 O     2.303244691448E+00  4.677908484455E+00 -5.973456813600E-02
   39     8 O    -2.346908739417E+00  6.984836828800E-02  6.991141661000E-03
   40     8 O     2.320285291135E+00  2.343970315607E+00  2.365437331840E+00
   41     8 O     4.691230770192E+00  4.670933354114E+00  2.384924907514E+00
   42     8 O     1.198902492200E-02 -1.516955154000E-03  2.402099653476E+00
   43     8 O     4.684166564624E+00  2.409469900286E+00  4.741268973189E+00
   44     8 O     6.984508979778E+00  4.787068517175E+00  4.679735521899E+00
   45     8 O     2.254988580535E+00 -9.723770414300E-02  4.679097303007E+00
   46     8 O    -6.005948564000E-03  4.780609408591E+00  2.448987188731E+00
   47     8 O     2.247972993000E+00  7.014502060015E+00  2.424616553800E+00
   48     8 O    -2.343452454214E+00  2.332026716750E+00  2.382075570825E+00
   49     8 O     2.346996898227E+00  4.782190782871E+00  4.662997136456E+00
   50     8 O     4.679778579328E+00  6.977480471804E+00  4.770083953658E+00
   51     8 O    -1.036116675980E-01  2.325522732772E+00  4.668624271653E+00
   52     8 O     4.661683466667E+00  4.648594705474E+00  6.898198931386E+00
   53     8 O     6.891047704687E+00  7.013788470916E+00  6.981146433007E+00
   54     8 O     2.439278300479E+00  2.336801465515E+00  7.010763282103E+00
 WARNING **** CRYSTA **** TESTGEOM  DIRECTIVE - GEOMETRY EDITING COMPLETE
 TTTTTTTTTTTTTTTTTTTTTTTTTTTTTT END         TELAPSE        0.01 TCPU        0.01
 EEEEEEEEEE TERMINATION  DATE 10 03 2023 TIME 10:29:53.1
Fri 10 Mar 2023 10:29:53 GMT
Contents of temporary directory:
total 8
-rw-r--r--  1 brunocamino  admin  4027 10 Mar 10:29 fort.34
SCF abnormal end - no wf written in fort.9
geometry input file fort.34 saved as /Users/brunocamino/Desktop/Imperial/cmsg_icl/solid-solutions/./data/crystal/testgeom_opt/CaMgO_testgeom_1557.gui
temporary directory /Users/brunocamino/crystal/tmp removed
