date Fri 10 Mar 2023 10:28:58 GMT
hostname MacBook-Pro-8
system Darwin MacBook-Pro-8 21.6.0 Darwin Kernel Version 21.6.0: Mon Aug 22 20:20:05 PDT 2022; root:xnu-8020.140.49~2/RELEASE_ARM64_T8101 arm64
user brunocamino
output data in /Users/brunocamino/Desktop/Imperial/cmsg_icl/solid-solutions/./data/crystal/testgeom_opt/CaMgO_testgeom_890.out
crystal executable in /Users/brunocamino/crystal
input data in /Users/brunocamino/Desktop/Imperial/cmsg_icl/solid-solutions/./data/crystal/testgeom_opt/CaMgO_testgeom_890.d12
temporary directory /Users/brunocamino/crystal/tmp
external geometry input from /Users/brunocamino/Desktop/Imperial/cmsg_icl/solid-solutions/./data/crystal/testgeom_opt/CaMgO_testgeom_890.gui
external geometry input saved in /Users/brunocamino/Desktop/Imperial/cmsg_icl/solid-solutions/./data/crystal/testgeom_opt/CaMgO_testgeom_890_inp.gui
Bulk 
EXTERNAL
EXTPRT
TESTGEOM
END

         
 *******************************************************************************
 *                                                                             *
 *                               CRYSTAL17                                     *
 *                      public : 1.0.1 - Feb 1st, 2017                         *
 *                       HTTP://WWW.CRYSTAL.UNITO.IT                           *
 *                                                                             *
 *                              MAIN AUTHORS                                   *
 *                                                                             *
 *  R. DOVESI(1,11), V.R. SAUNDERS(2), C. ROETTI(1,11), R. ORLANDO(1,11),      *
 *  C.M. ZICOVICH-WILSON(1,3), F. PASCALE(4), B. CIVALLERI(1,11),              *
 *  K. DOLL(5), N.M. HARRISON(2,6), I.J. BUSH(7), Ph. D'ARCO(8),               *
 *  M. LLUNELL(9), M. CAUSA'(10), Y. NOEL(8), L. MASCHIO(1,11), A. ERBA(1,11)  *
 *  M. RE'RAT(14), S. CASASSA(1,11)                                            *
 *                                                                             *
 *        CONTRIBUTIONS TO THE CODE HAVE ALSO BEEN GIVEN BY                    *
 *                                                                             *
 *  M. FERRABONE(1,11), M. DE LA PIERRE(1,11), M. FERRERO(1,11),               *
 *  J. BAIMA(1,11), E. ALBANESE(1,11), M.F. PEINTINGER(12), R. BAST(13),       *
 *  B. KIRTMAN(15), V. LACIVITA(1,11), R. DEMICHELIS(1,16)                     *
 *  G. BRANDEBURG(17), S. SALUSTRO(1,11), G. SANSONE(1,11)                     *
 *  M.T. RUGGIERO(18)                                                          *
 *                                                                             *
 * (1) THEORETICAL CHEMISTRY GROUP - UNIVERSITA' DI TORINO - TORINO (ITALY)    *

 * (2) COMPUTATIONAL SCIENCE & ENGINEERING DEPARTMENT - STFC DARESBURY (UK)    *
 * (3) UNIVERSIDAD AUTONOMA DEL ESTADO DE MORELOS - CUERNAVACA (MEXICO)        *
 * (4) UNIVERSITE' DE LORRAINE - NANCY (FRANCE)                                *
 * (5) UNIVERSITAET STUTTGART- STUTTGART (GERMANY)                             *
 * (6) IMPERIAL COLLEGE - LONDON (UK)                                          *
 * (7) OXFORD E-RESEARCH CENTRE - OXFORD (UK)                                  *
 * (8) UPMC - SORBONNE UNIVERSITES - PARIS (FRANCE)                            *
 * (9) UNIVERSIDAD DE BARCELONA - BARCELONA (SPAIN)                            *
 *(10) UNIVERSITA' DI NAPOLI "FEDERICO II" - NAPOLI (ITALY)                    *
 *(11) NIS - NANOSTRUCTURED INTERFACES AND SURFACES - TORINO (ITALY)           *
 *(12) MPI FUER CHEMISCHE ENERGIEKONVERSION - MUELHEIM AN DER RUHR (GERMANY)   *
 *(13) UNIVERSITY OF TROMSO - TROMSO (NORWAY)                                  *
 *(14) UNIVERSITE' DE PAU ET DES PAYS DE L'ADOUR - PAU (FRANCE)                *
 *(15) UNIVERSITY OF CALIFORNIA SANTA BARBARA - SANTA BARBARA (USA)            *
 *(16) CURTIN UNIVERSITY - PERTH (AUSTRALIA)                                   *
 *(17) UNIVERSITY COLLEGE LONDON - LONDON (UK)                                 *
 *(18) CAMBRIDGE UNIVERSITY - CAMBRIDGE (UK)                                   *
 *                                                                             *
 *******************************************************************************
 EEEEEEEEEE STARTING  DATE 10 03 2023 TIME 10:28:58.1
 Bulk                                                                            

 GEOMETRY INPUT FROM EXTERNAL FILE (FORTRAN UNIT 34)
 3D - CRYSTAL 

 *******************************************************************************
 LATTICE PARAMETERS  (ANGSTROMS AND DEGREES) - PRIMITIVE CELL
       A          B          C        ALPHA      BETA     GAMMA        VOLUME
    9.89022    9.90715    9.88718    59.93158  60.15062  60.03261    685.623224
 INFORMATION **** CHKGRP **** SPGR WITH NO INVERSION

 NUMBER OF IRREDUCIBLE ATOMS IN THE CELL:   54

 CARTESIAN COORDINATES (ANGSTROM) - IRREDUCIBLE ATOMS AND SYMMETRY RELATED

 AT.IRR.  AT  AT.N.          X                   Y                   Z
     1     1    20    1.899837668300E-02 -5.071009584400E-02 -3.884731581000E-02
     2     2    20    2.373778833162E+00  2.325994644817E+00 -4.739725970400E-02
     3     3    20   -2.319043907806E+00 -2.375117351965E+00 -4.400517846600E-02
     4     4    20    2.372963712901E+00 -5.821705089000E-02  2.331974469134E+00
     5     5    20    4.731721507538E+00  2.297863050324E+00  2.324783283893E+00
     6     6    20    3.757558328500E-02 -2.375680451536E+00  2.325197689351E+00
     7     7    20   -2.321326528783E+00 -4.794629507200E-02 -2.348006665248E+00
     8     8    20    3.248962595400E-02  2.343775747351E+00 -2.381343496984E+00
     9     9    12   -4.642938020988E+00 -2.383254330005E+00 -2.374260855932E+00
    10    10    20   -1.116672050800E-02  2.347101062483E+00  2.385753697833E+00
    11    11    20    2.321034578307E+00  4.682351008187E+00  2.371408646212E+00
    12    12    20   -2.368579153148E+00  2.270844495700E-02  2.388668280020E+00
    13    13    20    2.309474182606E+00  2.376479133143E+00  4.706434076187E+00
    14    14    12    4.634133645198E+00  4.649086009280E+00  4.729218913965E+00
    15    15    20   -4.103773111800E-02  7.828022776000E-03  4.722597123036E+00
    16    16    20   -2.371828779085E+00  2.372817878765E+00 -5.336324810000E-03
    17    17    20   -4.335636527200E-02  4.708963429248E+00  7.504262150000E-03
    18    18    20   -4.733937525853E+00  3.986586498800E-02  3.201731615800E-02
    19    19    12    1.863307672000E-03 -2.350777896275E+00 -2.302644736366E+00
    20    20    20    2.373772556195E+00 -9.271394219000E-03 -2.326621572078E+00
    21    21    12   -2.336135135745E+00 -4.584913931242E+00 -2.306928233109E+00
    22    22    12    2.337055478187E+00 -2.341676565151E+00 -6.929364222900E-02
    23    23    12    4.717870742423E+00  2.329098172000E-02 -3.820992778900E-02
    24    24    12   -3.696494345000E-03 -4.670575770186E+00  1.238814315100E-02
    25    25    20   -2.376677023183E+00 -2.334365460456E+00 -4.673823437738E+00
    26    26    12    9.620452117000E-03  2.619739842000E-02 -4.645042483392E+00
    27    27    12   -4.723500988718E+00 -4.594308458092E+00 -4.698816183218E+00
    28    28     8    3.327894326000E-03 -1.036734867300E-01 -2.410995156616E+00
    29    29     8    2.407419482476E+00  2.437218478298E+00 -2.410835100567E+00
    30    30     8   -2.381283242564E+00 -2.426570697366E+00 -2.335674563756E+00
    31    31     8    2.421972478297E+00 -8.700996837700E-02  3.181017716000E-03
    32    32     8    4.763388040191E+00  2.227320322054E+00 -1.067198036230E-01
    33    33     8    1.033442309360E-01 -2.419962253497E+00 -1.049460549270E-01
    34    34     8    4.772081693885E+00 -7.951160799000E-03  2.294168593141E+00
    35    35     8    7.112281647426E+00  2.219252044982E+00  2.242939474793E+00
    36    36     8    2.327938094878E+00 -2.436932280367E+00  2.351801082332E+00
    37    37     8    8.063670677000E-03  2.333376235484E+00  1.651962045000E-03
    38    38     8    2.343282051605E+00  4.663308016155E+00 -1.484576828300E-02
    39    39     8   -2.342452855775E+00 -4.531768153000E-03 -1.659176607000E-03
    40    40     8    2.343068360949E+00  2.324712995450E+00  2.338275203387E+00
    41    41     8    4.676804175028E+00  4.641427755516E+00  2.360479337086E+00
    42    42     8   -7.779753600000E-05 -1.482222017300E-02  2.347634754894E+00
    43    43     8    4.681999558034E+00  2.384054172437E+00  4.662741047459E+00
    44    44     8    6.998269805234E+00  4.647220138924E+00  4.673723426595E+00
    45    45     8    2.327939357682E+00 -7.278163058600E-02  4.682127311523E+00
    46    46     8   -2.066195792900E-02  4.725533913276E+00  2.378620470249E+00
    47    47     8    2.253709726710E+00  7.056907788613E+00  2.354327848132E+00
    48    48     8   -2.393013772614E+00  2.326575042070E+00  2.385756313081E+00
    49    49     8    2.378632550820E+00  4.656084791491E+00  4.746824624060E+00
    50    50     8    4.680037162015E+00  6.981742278936E+00  4.756322938341E+00
    51    51     8   -9.672066256000E-02  2.438100476665E+00  4.738209680628E+00
    52    52     8    4.555250828196E+00  4.738820364023E+00  6.890172260731E+00
    53    53     8    6.921689567757E+00  7.064830199376E+00  7.078402356989E+00
    54    54     8    2.258235456992E+00  2.426239856009E+00  7.067585845458E+00

 SYMMETRY CHANGED DURING OLD RUN :  INFORMATION ON SPACE GROUP LOST 
 NUMBER OF SYMMETRY OPERATORS         :    1
 *******************************************************************************
 LATTICE PARAMETERS (ANGSTROMS AND DEGREES) - BOHR = 0.5291772083 ANGSTROM
 PRIMITIVE CELL - CENTRING CODE 1/0 VOLUME=   685.623224 - DENSITY  3.311 g/cm^3
         A              B              C           ALPHA      BETA       GAMMA 
     9.89021669     9.90714905     9.88718487    59.931576  60.150617  60.032606
 *******************************************************************************
 ATOMS IN THE ASYMMETRIC UNIT   54 - ATOMS IN THE UNIT CELL:   54
     ATOM                 X/A                 Y/B                 Z/C    
 *******************************************************************************
      1 T  20 CA   -7.755360884140E-03  2.209892794412E-03  4.972640630147E-04
      2 T  20 CA   -5.891900185044E-03 -8.129473600870E-04  3.394660045625E-01
      3 T  20 CA   -8.046090549224E-03  1.701724989091E-03 -3.325509547067E-01
      4 T  20 CA   -6.592712840931E-03  3.397681441621E-01 -1.331843641038E-03
      5 T  20 CA   -6.391488761779E-03  3.386024125880E-01  3.363461122433E-01
      6 T  20 CA   -6.690992720633E-03  3.388362657791E-01 -3.335775081914E-01
      7 T  20 CA   -5.825966557152E-03 -3.296331574381E-01 -1.443467513636E-03
      8 T  20 CA   -4.588778611242E-03 -3.355701652587E-01  3.403025169242E-01
      9 T  12 MG   -9.572736221199E-03 -3.296969375877E-01 -3.325932639214E-01
     10 T  20 CA    3.391142539094E-01  1.539394415234E-03 -3.019553475955E-03
     11 T  20 CA    3.392043455296E-01 -5.377565813790E-04  3.317813745557E-01
     12 T  20 CA    3.407798108121E-01  2.267338500486E-04 -3.380258277568E-01
     13 T  20 CA    3.417090702491E-01  3.305015877660E-01 -1.003819515408E-03
     14 T  12 MG    3.405036095640E-01  3.350241125237E-01  3.261191023746E-01
     15 T  20 CA    3.406617044218E-01  3.337956047150E-01 -3.396345727443E-01
     16 T  20 CA    3.382845149241E-01 -3.392472844820E-01  1.083656350518E-03
     17 T  20 CA    3.406451289265E-01 -3.397126618405E-01  3.337411148119E-01
     18 T  20 CA    3.421306363118E-01 -3.378220920111E-01 -3.373305465105E-01
     19 T  12 MG   -3.327813857166E-01  3.996571065288E-03 -3.843193616552E-03
     20 T  20 CA   -3.357578531261E-01  3.612434619363E-03  3.349281246879E-01
     21 T  12 MG   -3.265520506589E-01 -2.909409496035E-03 -3.304832820004E-01
     22 T  12 MG   -3.389087017657E-01  3.292103233849E-01  3.995122354422E-03
     23 T  12 MG   -3.369088681232E-01  3.317131956399E-01  3.411508216220E-01
     24 T  12 MG   -3.331279237783E-01  3.350326710900E-01 -3.357700220457E-01
     25 T  20 CA   -3.315827438885E-01 -3.359755667518E-01 -3.104687278160E-03
     26 T  12 MG   -3.304528249319E-01 -3.329312170998E-01  3.342912031434E-01
     27 T  12 MG   -3.280507523791E-01 -3.431415444328E-01 -3.307446956985E-01
     28 T   8 O    -1.797951251453E-01 -1.645290262316E-01  1.649921012288E-01
     29 T   8 O    -1.690691065075E-01 -1.751725352077E-01 -4.813783183023E-01
     30 T   8 O    -1.709167811314E-01 -1.627153309250E-01 -1.770193361263E-01
     31 T   8 O    -1.784114784679E-01  1.790027920213E-01  1.664151973322E-01
     32 T   8 O    -1.872969593708E-01  1.722554932633E-01 -4.928008022727E-01
     33 T   8 O    -1.880475050623E-01  1.731356538240E-01 -1.585058981717E-01
     34 T   8 O    -1.764787083014E-01 -4.956133668492E-01  1.762142074691E-01
     35 T   8 O    -1.873243911692E-01 -4.920187736482E-01 -4.935208077491E-01
     36 T   8 O    -1.722178303255E-01 -4.917085626528E-01 -1.763836876210E-01
     37 T   8 O     1.665448758520E-01 -1.663763140320E-01  1.676313700461E-01
     38 T   8 O     1.658858735415E-01 -1.680114847821E-01 -4.975796311742E-01
     39 T   8 O     1.663077365985E-01 -1.666746318484E-01 -1.674063783418E-01
     40 T   8 O     1.665328264661E-01  1.674715352642E-01  1.668083459899E-01
     41 T   8 O     1.677966175595E-01  1.694410968744E-01  4.977806843045E-01
     42 T   8 O     1.665592091875E-01  1.687197222903E-01 -1.687247818625E-01
     43 T   8 O     1.702403712773E-01  4.958617679605E-01  1.720059629507E-01
     44 T   8 O     1.681137546394E-01  4.996196838082E-01  4.986965646522E-01
     45 T   8 O     1.633642990386E-01 -4.945528177146E-01 -1.734262039709E-01
     46 T   8 O    -4.904934289812E-01 -1.699413060729E-01  1.672139528597E-01
     47 T   8 O    -4.872743023069E-01 -1.765712573405E-01  4.983198144239E-01
     48 T   8 O    -4.927997523572E-01 -1.666778876714E-01 -1.745023998588E-01
     49 T   8 O    -4.971777213909E-01  1.750943647499E-01  1.643694805924E-01
     50 T   8 O    -4.938795158153E-01  1.732128694426E-01  4.945821634266E-01
     51 T   8 O    -4.803238753267E-01  1.569371793082E-01 -1.706082359614E-01
     52 T   8 O    -4.931727018010E-01  4.773109523287E-01  1.725921976203E-01
     53 T   8 O    -4.817178715887E-01  4.928020925309E-01  4.947079433693E-01
     54 T   8 O    -4.825024520629E-01  4.919177622659E-01 -1.697186839278E-01

 T = ATOM BELONGING TO THE ASYMMETRIC UNIT
 *******************************************************************************
 * GEOMETRY EDITING - INPUT COORDINATES ARE GIVEN IN ANGSTROM         
 *******************************************************************************

 GCALCO - MAX INDICES DIRECT LATTICE VECTOR    14    15    15
 NO.OF VECTORS CREATED 6999 STARS 3500 RMAX   198.07727 BOHR

 GEOMETRY FOR WAVE FUNCTION - DIMENSIONALITY OF THE SYSTEM    3
 (NON PERIODIC DIRECTION: LATTICE PARAMETER FORMALLY SET TO 500)
 *******************************************************************************
 LATTICE PARAMETERS (ANGSTROMS AND DEGREES) - BOHR = 0.5291772083 ANGSTROM
 PRIMITIVE CELL - CENTRING CODE 1/0 VOLUME=   685.623224 - DENSITY  3.311 g/cm^3
         A              B              C           ALPHA      BETA       GAMMA 
     9.89021669     9.90714905     9.88718487    59.931576  60.150617  60.032606
 *******************************************************************************
 ATOMS IN THE ASYMMETRIC UNIT   54 - ATOMS IN THE UNIT CELL:   54
     ATOM                 X/A                 Y/B                 Z/C    
 *******************************************************************************
      1 T  20 CA   -7.755360884140E-03  2.209892794412E-03  4.972640630147E-04
      2 T  20 CA   -5.891900185044E-03 -8.129473600870E-04  3.394660045625E-01
      3 T  20 CA   -8.046090549224E-03  1.701724989091E-03 -3.325509547067E-01
      4 T  20 CA   -6.592712840931E-03  3.397681441621E-01 -1.331843641038E-03
      5 T  20 CA   -6.391488761779E-03  3.386024125880E-01  3.363461122433E-01
      6 T  20 CA   -6.690992720633E-03  3.388362657791E-01 -3.335775081914E-01
      7 T  20 CA   -5.825966557152E-03 -3.296331574381E-01 -1.443467513636E-03
      8 T  20 CA   -4.588778611242E-03 -3.355701652587E-01  3.403025169242E-01
      9 T  12 MG   -9.572736221199E-03 -3.296969375877E-01 -3.325932639214E-01
     10 T  20 CA    3.391142539094E-01  1.539394415234E-03 -3.019553475955E-03
     11 T  20 CA    3.392043455296E-01 -5.377565813791E-04  3.317813745557E-01
     12 T  20 CA    3.407798108121E-01  2.267338500487E-04 -3.380258277568E-01
     13 T  20 CA    3.417090702491E-01  3.305015877660E-01 -1.003819515408E-03
     14 T  12 MG    3.405036095640E-01  3.350241125237E-01  3.261191023746E-01
     15 T  20 CA    3.406617044218E-01  3.337956047150E-01 -3.396345727443E-01
     16 T  20 CA    3.382845149241E-01 -3.392472844820E-01  1.083656350518E-03
     17 T  20 CA    3.406451289265E-01 -3.397126618405E-01  3.337411148119E-01
     18 T  20 CA    3.421306363118E-01 -3.378220920111E-01 -3.373305465105E-01
     19 T  12 MG   -3.327813857166E-01  3.996571065288E-03 -3.843193616552E-03
     20 T  20 CA   -3.357578531261E-01  3.612434619364E-03  3.349281246879E-01
     21 T  12 MG   -3.265520506589E-01 -2.909409496035E-03 -3.304832820004E-01
     22 T  12 MG   -3.389087017657E-01  3.292103233849E-01  3.995122354422E-03
     23 T  12 MG   -3.369088681232E-01  3.317131956399E-01  3.411508216220E-01
     24 T  12 MG   -3.331279237783E-01  3.350326710900E-01 -3.357700220457E-01
     25 T  20 CA   -3.315827438885E-01 -3.359755667518E-01 -3.104687278160E-03
     26 T  12 MG   -3.304528249319E-01 -3.329312170998E-01  3.342912031434E-01
     27 T  12 MG   -3.280507523791E-01 -3.431415444328E-01 -3.307446956985E-01
     28 T   8 O    -1.797951251453E-01 -1.645290262316E-01  1.649921012288E-01
     29 T   8 O    -1.690691065075E-01 -1.751725352077E-01 -4.813783183023E-01
     30 T   8 O    -1.709167811314E-01 -1.627153309250E-01 -1.770193361263E-01
     31 T   8 O    -1.784114784679E-01  1.790027920213E-01  1.664151973322E-01
     32 T   8 O    -1.872969593708E-01  1.722554932633E-01 -4.928008022727E-01
     33 T   8 O    -1.880475050623E-01  1.731356538240E-01 -1.585058981717E-01
     34 T   8 O    -1.764787083014E-01 -4.956133668492E-01  1.762142074691E-01
     35 T   8 O    -1.873243911692E-01 -4.920187736482E-01 -4.935208077491E-01
     36 T   8 O    -1.722178303255E-01 -4.917085626528E-01 -1.763836876210E-01
     37 T   8 O     1.665448758520E-01 -1.663763140320E-01  1.676313700461E-01
     38 T   8 O     1.658858735415E-01 -1.680114847821E-01 -4.975796311742E-01
     39 T   8 O     1.663077365985E-01 -1.666746318484E-01 -1.674063783418E-01
     40 T   8 O     1.665328264661E-01  1.674715352642E-01  1.668083459899E-01
     41 T   8 O     1.677966175595E-01  1.694410968744E-01  4.977806843045E-01
     42 T   8 O     1.665592091875E-01  1.687197222903E-01 -1.687247818625E-01
     43 T   8 O     1.702403712773E-01  4.958617679605E-01  1.720059629507E-01
     44 T   8 O     1.681137546394E-01  4.996196838082E-01  4.986965646522E-01
     45 T   8 O     1.633642990386E-01 -4.945528177146E-01 -1.734262039709E-01
     46 T   8 O    -4.904934289812E-01 -1.699413060729E-01  1.672139528597E-01
     47 T   8 O    -4.872743023069E-01 -1.765712573405E-01  4.983198144239E-01
     48 T   8 O    -4.927997523572E-01 -1.666778876714E-01 -1.745023998588E-01
     49 T   8 O    -4.971777213909E-01  1.750943647499E-01  1.643694805924E-01
     50 T   8 O    -4.938795158153E-01  1.732128694426E-01  4.945821634266E-01
     51 T   8 O    -4.803238753267E-01  1.569371793082E-01 -1.706082359614E-01
     52 T   8 O    -4.931727018010E-01  4.773109523287E-01  1.725921976203E-01
     53 T   8 O    -4.817178715887E-01  4.928020925309E-01  4.947079433693E-01
     54 T   8 O    -4.825024520629E-01  4.919177622659E-01 -1.697186839278E-01

 T = ATOM BELONGING TO THE ASYMMETRIC UNIT

 ****    1 SYMMOPS - TRANSLATORS IN FRACTIONAL UNITS
 **** MATRICES AND TRANSLATORS IN THE CRYSTALLOGRAPHIC REFERENCE FRAME
   V INV                    ROTATION MATRICES                   TRANSLATORS
   1   1  1.00  0.00  0.00  0.00  1.00  0.00  0.00  0.00  1.00  0.00  0.00  0.00

 DIRECT LATTICE VECTORS CARTESIAN COMPONENTS (ANGSTROM)
          X                    Y                    Z
  -0.234380268366E-02   0.698339808569E+01   0.700346569943E+01
   0.701149820451E+01  -0.850704446849E-02   0.699931588167E+01
   0.700943532102E+01   0.697310829861E+01  -0.130635609811E-02


 CARTESIAN COORDINATES - PRIMITIVE CELL
 *******************************************************************************
 *      ATOM          X(ANGSTROM)         Y(ANGSTROM)         Z(ANGSTROM)
 *******************************************************************************
    1    20 CA    1.899837668300E-02 -5.071009584400E-02 -3.884731581000E-02
    2    20 CA    2.373778833162E+00  2.325994644817E+00 -4.739725970400E-02
    3    20 CA   -2.319043907806E+00 -2.375117351965E+00 -4.400517846600E-02
    4    20 CA    2.372963712901E+00 -5.821705089000E-02  2.331974469134E+00
    5    20 CA    4.731721507538E+00  2.297863050324E+00  2.324783283893E+00
    6    20 CA    3.757558328500E-02 -2.375680451536E+00  2.325197689351E+00
    7    20 CA   -2.321326528783E+00 -4.794629507200E-02 -2.348006665248E+00
    8    20 CA    3.248962595400E-02  2.343775747351E+00 -2.381343496984E+00
    9    12 MG   -4.642938020988E+00 -2.383254330005E+00 -2.374260855932E+00
   10    20 CA   -1.116672050800E-02  2.347101062483E+00  2.385753697833E+00
   11    20 CA    2.321034578307E+00  4.682351008187E+00  2.371408646212E+00
   12    20 CA   -2.368579153148E+00  2.270844495700E-02  2.388668280020E+00
   13    20 CA    2.309474182606E+00  2.376479133143E+00  4.706434076187E+00
   14    12 MG    4.634133645198E+00  4.649086009280E+00  4.729218913965E+00
   15    20 CA   -4.103773111800E-02  7.828022776000E-03  4.722597123036E+00
   16    20 CA   -2.371828779085E+00  2.372817878765E+00 -5.336324810000E-03
   17    20 CA   -4.335636527200E-02  4.708963429248E+00  7.504262149999E-03
   18    20 CA   -4.733937525853E+00  3.986586498800E-02  3.201731615800E-02
   19    12 MG    1.863307672000E-03 -2.350777896275E+00 -2.302644736366E+00
   20    20 CA    2.373772556195E+00 -9.271394219000E-03 -2.326621572078E+00
   21    12 MG   -2.336135135745E+00 -4.584913931242E+00 -2.306928233109E+00
   22    12 MG    2.337055478187E+00 -2.341676565151E+00 -6.929364222900E-02
   23    12 MG    4.717870742423E+00  2.329098172000E-02 -3.820992778900E-02
   24    12 MG   -3.696494345000E-03 -4.670575770186E+00  1.238814315100E-02
   25    20 CA   -2.376677023183E+00 -2.334365460456E+00 -4.673823437738E+00
   26    12 MG    9.620452117000E-03  2.619739842000E-02 -4.645042483392E+00
   27    12 MG   -4.723500988718E+00 -4.594308458092E+00 -4.698816183218E+00
   28     8 O     3.327894326000E-03 -1.036734867300E-01 -2.410995156616E+00
   29     8 O     2.407419482476E+00  2.437218478298E+00 -2.410835100567E+00
   30     8 O    -2.381283242564E+00 -2.426570697366E+00 -2.335674563756E+00
   31     8 O     2.421972478297E+00 -8.700996837700E-02  3.181017716000E-03
   32     8 O     4.763388040191E+00  2.227320322054E+00 -1.067198036230E-01
   33     8 O     1.033442309360E-01 -2.419962253497E+00 -1.049460549270E-01
   34     8 O     4.772081693885E+00 -7.951160799000E-03  2.294168593141E+00
   35     8 O     7.112281647426E+00  2.219252044982E+00  2.242939474793E+00
   36     8 O     2.327938094878E+00 -2.436932280367E+00  2.351801082332E+00
   37     8 O     8.063670677000E-03  2.333376235484E+00  1.651962045000E-03
   38     8 O     2.343282051605E+00  4.663308016155E+00 -1.484576828300E-02
   39     8 O    -2.342452855775E+00 -4.531768153000E-03 -1.659176607000E-03
   40     8 O     2.343068360949E+00  2.324712995450E+00  2.338275203387E+00
   41     8 O     4.676804175028E+00  4.641427755516E+00  2.360479337086E+00
   42     8 O    -7.779753600036E-05 -1.482222017300E-02  2.347634754894E+00
   43     8 O     4.681999558034E+00  2.384054172437E+00  4.662741047459E+00
   44     8 O     6.998269805234E+00  4.647220138924E+00  4.673723426595E+00
   45     8 O     2.327939357682E+00 -7.278163058600E-02  4.682127311523E+00
   46     8 O    -2.066195792900E-02  4.725533913276E+00  2.378620470249E+00
   47     8 O     2.253709726710E+00  7.056907788613E+00  2.354327848132E+00
   48     8 O    -2.393013772614E+00  2.326575042070E+00  2.385756313081E+00
   49     8 O     2.378632550820E+00  4.656084791491E+00  4.746824624060E+00
   50     8 O     4.680037162015E+00  6.981742278936E+00  4.756322938341E+00
   51     8 O    -9.672066256000E-02  2.438100476665E+00  4.738209680628E+00
   52     8 O     4.555250828196E+00  4.738820364023E+00  6.890172260731E+00
   53     8 O     6.921689567757E+00  7.064830199376E+00  7.078402356989E+00
   54     8 O     2.258235456992E+00  2.426239856009E+00  7.067585845458E+00
 WARNING **** CRYSTA **** TESTGEOM  DIRECTIVE - GEOMETRY EDITING COMPLETE
 TTTTTTTTTTTTTTTTTTTTTTTTTTTTTT END         TELAPSE        0.01 TCPU        0.01
 EEEEEEEEEE TERMINATION  DATE 10 03 2023 TIME 10:28:58.1
Fri 10 Mar 2023 10:28:58 GMT
Contents of temporary directory:
total 8
-rw-r--r--  1 brunocamino  admin  4027 10 Mar 10:28 fort.34
SCF abnormal end - no wf written in fort.9
geometry input file fort.34 saved as /Users/brunocamino/Desktop/Imperial/cmsg_icl/solid-solutions/./data/crystal/testgeom_opt/CaMgO_testgeom_890.gui
temporary directory /Users/brunocamino/crystal/tmp removed
