date Fri 10 Mar 2023 10:31:23 GMT
hostname MacBook-Pro-8
system Darwin MacBook-Pro-8 21.6.0 Darwin Kernel Version 21.6.0: Mon Aug 22 20:20:05 PDT 2022; root:xnu-8020.140.49~2/RELEASE_ARM64_T8101 arm64
user brunocamino
output data in /Users/brunocamino/Desktop/Imperial/cmsg_icl/solid-solutions/./data/crystal/testgeom_opt/CaMgO_testgeom_2688.out
crystal executable in /Users/brunocamino/crystal
input data in /Users/brunocamino/Desktop/Imperial/cmsg_icl/solid-solutions/./data/crystal/testgeom_opt/CaMgO_testgeom_2688.d12
temporary directory /Users/brunocamino/crystal/tmp
external geometry input from /Users/brunocamino/Desktop/Imperial/cmsg_icl/solid-solutions/./data/crystal/testgeom_opt/CaMgO_testgeom_2688.gui
external geometry input saved in /Users/brunocamino/Desktop/Imperial/cmsg_icl/solid-solutions/./data/crystal/testgeom_opt/CaMgO_testgeom_2688_inp.gui
Bulk 
EXTERNAL
EXTPRT
TESTGEOM
END

         
 *******************************************************************************
 *                                                                             *
 *                               CRYSTAL17                                     *
 *                      public : 1.0.1 - Feb 1st, 2017                         *
 *                       HTTP://WWW.CRYSTAL.UNITO.IT                           *
 *                                                                             *
 *                              MAIN AUTHORS                                   *
 *                                                                             *
 *  R. DOVESI(1,11), V.R. SAUNDERS(2), C. ROETTI(1,11), R. ORLANDO(1,11),      *
 *  C.M. ZICOVICH-WILSON(1,3), F. PASCALE(4), B. CIVALLERI(1,11),              *
 *  K. DOLL(5), N.M. HARRISON(2,6), I.J. BUSH(7), Ph. D'ARCO(8),               *
 *  M. LLUNELL(9), M. CAUSA'(10), Y. NOEL(8), L. MASCHIO(1,11), A. ERBA(1,11)  *
 *  M. RE'RAT(14), S. CASASSA(1,11)                                            *
 *                                                                             *
 *        CONTRIBUTIONS TO THE CODE HAVE ALSO BEEN GIVEN BY                    *
 *                                                                             *
 *  M. FERRABONE(1,11), M. DE LA PIERRE(1,11), M. FERRERO(1,11),               *
 *  J. BAIMA(1,11), E. ALBANESE(1,11), M.F. PEINTINGER(12), R. BAST(13),       *
 *  B. KIRTMAN(15), V. LACIVITA(1,11), R. DEMICHELIS(1,16)                     *
 *  G. BRANDEBURG(17), S. SALUSTRO(1,11), G. SANSONE(1,11)                     *
 *  M.T. RUGGIERO(18)                                                          *
 *                                                                             *
 * (1) THEORETICAL CHEMISTRY GROUP - UNIVERSITA' DI TORINO - TORINO (ITALY)    *

 * (2) COMPUTATIONAL SCIENCE & ENGINEERING DEPARTMENT - STFC DARESBURY (UK)    *
 * (3) UNIVERSIDAD AUTONOMA DEL ESTADO DE MORELOS - CUERNAVACA (MEXICO)        *
 * (4) UNIVERSITE' DE LORRAINE - NANCY (FRANCE)                                *
 * (5) UNIVERSITAET STUTTGART- STUTTGART (GERMANY)                             *
 * (6) IMPERIAL COLLEGE - LONDON (UK)                                          *
 * (7) OXFORD E-RESEARCH CENTRE - OXFORD (UK)                                  *
 * (8) UPMC - SORBONNE UNIVERSITES - PARIS (FRANCE)                            *
 * (9) UNIVERSIDAD DE BARCELONA - BARCELONA (SPAIN)                            *
 *(10) UNIVERSITA' DI NAPOLI "FEDERICO II" - NAPOLI (ITALY)                    *
 *(11) NIS - NANOSTRUCTURED INTERFACES AND SURFACES - TORINO (ITALY)           *
 *(12) MPI FUER CHEMISCHE ENERGIEKONVERSION - MUELHEIM AN DER RUHR (GERMANY)   *
 *(13) UNIVERSITY OF TROMSO - TROMSO (NORWAY)                                  *
 *(14) UNIVERSITE' DE PAU ET DES PAYS DE L'ADOUR - PAU (FRANCE)                *
 *(15) UNIVERSITY OF CALIFORNIA SANTA BARBARA - SANTA BARBARA (USA)            *
 *(16) CURTIN UNIVERSITY - PERTH (AUSTRALIA)                                   *
 *(17) UNIVERSITY COLLEGE LONDON - LONDON (UK)                                 *
 *(18) CAMBRIDGE UNIVERSITY - CAMBRIDGE (UK)                                   *
 *                                                                             *
 *******************************************************************************
 EEEEEEEEEE STARTING  DATE 10 03 2023 TIME 10:31:23.0
 Bulk                                                                            

 GEOMETRY INPUT FROM EXTERNAL FILE (FORTRAN UNIT 34)
 3D - CRYSTAL 

 *******************************************************************************
 LATTICE PARAMETERS  (ANGSTROMS AND DEGREES) - PRIMITIVE CELL
       A          B          C        ALPHA      BETA     GAMMA        VOLUME
    9.91567    9.89651    9.90525    59.99809  59.87640  60.00820    686.701264
 INFORMATION **** CHKGRP **** SPGR WITH NO INVERSION

 NUMBER OF IRREDUCIBLE ATOMS IN THE CELL:   54

 CARTESIAN COORDINATES (ANGSTROM) - IRREDUCIBLE ATOMS AND SYMMETRY RELATED

 AT.IRR.  AT  AT.N.          X                   Y                   Z
     1     1    20   -2.329734800300E-02  1.266269191000E-02 -8.464742936000E-03
     2     2    20    2.339107577932E+00  2.342651761837E+00 -4.693105668800E-02
     3     3    20   -2.350807387450E+00 -2.323837268795E+00 -1.742461777300E-02
     4     4    20    2.358226654614E+00 -1.223145244600E-02  2.405977481785E+00
     5     5    20    4.688206574498E+00  2.321050096375E+00  2.332921602144E+00
     6     6    20    1.588382676900E-02 -2.344712764576E+00  2.324790685835E+00
     7     7    20   -2.362191974771E+00  2.415924259000E-03 -2.294954555420E+00
     8     8    20    2.471268295000E-02  2.326887213650E+00 -2.344932756780E+00
     9     9    12   -4.639304480362E+00 -2.293968061918E+00 -2.291506549988E+00
    10    10    20   -4.103112999900E-02  2.345591334771E+00  2.327380816266E+00
    11    11    20    2.326834972800E+00  4.738028980334E+00  2.378192130657E+00
    12    12    12   -2.382473550651E+00 -1.702822968100E-02  2.271606049445E+00
    13    13    12    2.329492026257E+00  2.296283002865E+00  4.753201121843E+00
    14    14    20    4.629990350243E+00  4.679199764356E+00  4.678366452083E+00
    15    15    20    3.475037913900E-02  2.371393799700E-02  4.711727751614E+00
    16    16    12   -2.348373598892E+00  2.310272469386E+00  2.162616953300E-02
    17    17    20    5.847910698000E-03  4.708171741936E+00  4.301090784400E-02
    18    18    12   -4.679243262240E+00  8.092766761500E-02 -1.571620215800E-02
    19    19    20    1.782197323100E-02 -2.349782950638E+00 -2.348962095255E+00
    20    20    12    2.342159199699E+00 -1.557809237400E-02 -2.357486202072E+00
    21    21    20   -2.360007432739E+00 -4.683916635773E+00 -2.425977588007E+00
    22    22    20    2.345370225511E+00 -2.396725038622E+00 -1.658560628300E-02
    23    23    20    4.689190801388E+00 -6.225731626000E-03  3.583910494100E-02
    24    24    12    1.111960399700E-02 -4.766508436569E+00  5.530698119900E-02
    25    25    12   -2.340816241480E+00 -2.269821082689E+00 -4.662399476024E+00
    26    26    12    1.442148210200E-02  1.839951009100E-02 -4.691701618479E+00
    27    27    20   -4.644144289201E+00 -4.711473095844E+00 -4.685429208126E+00
    28    28     8    1.081064593750E-01  2.093715318000E-03 -2.392867332178E+00
    29    29     8    2.329598478434E+00  2.321908406680E+00 -2.340542856255E+00
    30    30     8   -2.441505913323E+00 -2.338727767951E+00 -2.431427544553E+00
    31    31     8    2.327002856958E+00  1.214078680000E-03 -6.879891025700E-02
    32    32     8    4.749078194216E+00  2.331866822528E+00 -2.632415290000E-02
    33    33     8   -5.224594262000E-03 -2.434292572103E+00  4.544430890000E-03
    34    34     8    4.750641073709E+00 -8.324971843300E-02  2.350281420865E+00
    35    35     8    6.997129774906E+00  2.228399439359E+00  2.243157763312E+00
    36    36     8    2.423382815242E+00 -2.322454912390E+00  2.349469571681E+00
    37    37     8   -7.394081451700E-02  2.339760078040E+00 -1.651676584600E-02
    38    38     8    2.337874894621E+00  4.760712532778E+00 -1.019568307020E-01
    39    39     8   -2.436145474390E+00  9.678841241700E-02  1.164960101320E-01
    40    40     8    2.334863797734E+00  2.337608453451E+00  2.401254501958E+00
    41    41     8    4.671098019777E+00  4.761365022255E+00  2.338482164025E+00
    42    42     8   -6.294720678100E-02 -5.162576144000E-03  2.326300823864E+00
    43    43     8    4.557845244639E+00  2.336423686381E+00  4.763917913492E+00
    44    44     8    7.116129975467E+00  4.681913702668E+00  4.674814036067E+00
    45    45     8    2.337212263702E+00 -4.857540507000E-03  4.774275965613E+00
    46    46     8   -9.698086009100E-02  4.799377787873E+00  2.340629237039E+00
    47    47     8    2.349893506152E+00  7.022803378687E+00  2.350211426085E+00
    48    48     8   -2.337604157634E+00  2.309901803696E+00  2.206954221651E+00
    49    49     8    2.330890321819E+00  4.692611409598E+00  4.675984763980E+00
    50    50     8    4.566402480025E+00  7.011199067901E+00  4.613871356000E+00
    51    51     8    8.817178780700E-02  2.334615693323E+00  4.673511531522E+00
    52    52     8    4.665981363400E+00  4.587613457131E+00  7.095724104976E+00
    53    53     8    7.091227364792E+00  7.135686430554E+00  7.100636949219E+00
    54    54     8    2.309615428717E+00  2.224315267383E+00  6.889696400900E+00

 SYMMETRY CHANGED DURING OLD RUN :  INFORMATION ON SPACE GROUP LOST 
 NUMBER OF SYMMETRY OPERATORS         :    1
 *******************************************************************************
 LATTICE PARAMETERS (ANGSTROMS AND DEGREES) - BOHR = 0.5291772083 ANGSTROM
 PRIMITIVE CELL - CENTRING CODE 1/0 VOLUME=   686.701264 - DENSITY  3.306 g/cm^3
         A              B              C           ALPHA      BETA       GAMMA 
     9.91567159     9.89650780     9.90525025    59.998092  59.876404  60.008197
 *******************************************************************************
 ATOMS IN THE ASYMMETRIC UNIT   54 - ATOMS IN THE UNIT CELL:   54
     ATOM                 X/A                 Y/B                 Z/C    
 *******************************************************************************
      1 T  20 CA    1.962550274113E-03 -3.172674207634E-03 -1.583379381227E-04
      2 T  20 CA   -3.584519464617E-03 -3.467360405090E-03  3.377467153514E-01
      3 T  20 CA    1.165351125110E-03 -3.311900892685E-03 -3.326393028222E-01
      4 T  20 CA    2.428374922675E-03  3.413106305741E-01 -4.242516758025E-03
      5 T  20 CA   -3.037163415206E-03  3.359922497222E-01  3.340515114797E-01
      6 T  20 CA   -2.180439699149E-03  3.346614594833E-01 -3.323323042641E-01
      7 T  20 CA    5.084006126608E-03 -3.329558805854E-01 -4.681583045922E-03
      8 T  20 CA   -3.429026037310E-03 -3.319300936202E-01  3.354060691942E-01
      9 T  12 MG    4.429844154115E-03 -3.314712914154E-01 -3.315839326036E-01
     10 T  20 CA    3.362618976785E-01 -3.915807400924E-03 -2.133028332839E-03
     11 T  20 CA    3.411496337142E-01 -1.893901794849E-03  3.342305582661E-01
     12 T  12 MG    3.312560803482E-01 -6.533203497173E-03 -3.341249982673E-01
     13 T  12 MG    3.365868219509E-01  3.423374732145E-01 -9.558911524604E-03
     14 T  20 CA    3.366375525199E-01  3.312444101525E-01  3.302926054931E-01
     15 T  20 CA    3.356813285266E-01  3.376519463157E-01 -3.328114284058E-01
     16 T  12 MG    3.339665067629E-01 -3.310337654311E-01 -4.809021468023E-03
     17 T  20 CA    3.381170016299E-01 -3.324799275176E-01  3.330725097055E-01
     18 T  12 MG    3.390174707187E-01 -3.410886608690E-01 -3.278593633611E-01
     19 T  20 CA   -3.364432217449E-01  1.014386901207E-03  1.717263066059E-03
     20 T  12 MG   -3.368313957147E-01 -1.592177713519E-04  3.350580604950E-01
     21 T  20 CA   -3.383360561118E-01 -7.753087049393E-03 -3.293274069095E-01
     22 T  20 CA   -3.395517896336E-01  3.373488468752E-01 -1.931108141195E-03
     23 T  20 CA   -3.329686795011E-01  3.379070961938E-01  3.324586444867E-01
     24 T  12 MG   -3.364649493036E-01  3.448837991267E-01 -3.430503374370E-01
     25 T  12 MG   -3.274078131516E-01 -3.385427415298E-01  4.141477571586E-03
     26 T  12 MG   -3.347643472363E-01 -3.357135436005E-01  3.378999280068E-01
     27 T  20 CA   -3.384300115820E-01 -3.304572200420E-01 -3.331013917808E-01
     28 T   8 O    -1.784559396557E-01 -1.635051676696E-01  1.790240292286E-01
     29 T   8 O    -1.681748940238E-01 -1.666467352753E-01  4.996291572087E-01
     30 T   8 O    -1.658036890972E-01 -1.813147510391E-01 -1.675372975319E-01
     31 T   8 O    -1.711116526930E-01  1.611884384633E-01  1.714815026227E-01
     32 T   8 O    -1.750952360529E-01  1.708948707924E-01 -4.920862865406E-01
     33 T   8 O    -1.727486519289E-01  1.736615819730E-01 -1.742833423761E-01
     34 T   8 O    -1.775684617347E-01 -4.867380153781E-01  1.658306687100E-01
     35 T   8 O    -1.810420005445E-01 -4.989112934023E-01  4.990457209879E-01
     36 T   8 O    -1.708694051943E-01 -4.932196241314E-01 -1.602771445050E-01
     37 T   8 O     1.708151907802E-01 -1.734257175536E-01  1.627351820589E-01
     38 T   8 O     1.648640410203E-01 -1.800409613939E-01 -4.859788680849E-01
     39 T   8 O     1.892998254309E-01 -1.725666983578E-01 -1.757125839522E-01
     40 T   8 O     1.711897415040E-01  1.716210737692E-01  1.619862912118E-01
     41 T   8 O     1.724581113343E-01  1.610283400256E-01 -4.935561443029E-01
     42 T   8 O     1.702565869580E-01  1.621902848845E-01 -1.712512424558E-01
     43 T   8 O     1.809765279759E-01  4.993875336455E-01  1.519538914022E-01
     44 T   8 O     1.589204241664E-01 -4.916439214966E-01 -4.914007652080E-01
     45 T   8 O     1.735808757550E-01 -4.913962542564E-01 -1.746036469227E-01
     46 T   8 O    -4.839584088157E-01 -1.820654235399E-01  1.678913915709E-01
     47 T   8 O    -4.997031093304E-01 -1.652878153940E-01 -4.991959072718E-01
     48 T   8 O     4.892296351474E-01 -1.739993770974E-01 -1.603623122049E-01
     49 T   8 O    -4.982857624419E-01  1.659160826404E-01  1.669411317572E-01
     50 T   8 O    -4.972662707871E-01  1.556817178920E-01  4.966465025947E-01
     51 T   8 O     4.937895551561E-01  1.738303231156E-01 -1.614705802925E-01
     52 T   8 O    -4.998311113691E-01 -4.868219607437E-01  1.534442286295E-01
     53 T   8 O    -4.912321710509E-01 -4.950895398163E-01 -4.917064538240E-01
     54 T   8 O     4.854512416403E-01  4.988009884142E-01 -1.689174925672E-01

 T = ATOM BELONGING TO THE ASYMMETRIC UNIT
 *******************************************************************************
 * GEOMETRY EDITING - INPUT COORDINATES ARE GIVEN IN ANGSTROM         
 *******************************************************************************

 GCALCO - MAX INDICES DIRECT LATTICE VECTOR    14    14    14
 NO.OF VECTORS CREATED 6999 STARS 3500 RMAX   198.15968 BOHR

 GEOMETRY FOR WAVE FUNCTION - DIMENSIONALITY OF THE SYSTEM    3
 (NON PERIODIC DIRECTION: LATTICE PARAMETER FORMALLY SET TO 500)
 *******************************************************************************
 LATTICE PARAMETERS (ANGSTROMS AND DEGREES) - BOHR = 0.5291772083 ANGSTROM
 PRIMITIVE CELL - CENTRING CODE 1/0 VOLUME=   686.701264 - DENSITY  3.306 g/cm^3
         A              B              C           ALPHA      BETA       GAMMA 
     9.91567159     9.89650780     9.90525025    59.998092  59.876404  60.008197
 *******************************************************************************
 ATOMS IN THE ASYMMETRIC UNIT   54 - ATOMS IN THE UNIT CELL:   54
     ATOM                 X/A                 Y/B                 Z/C    
 *******************************************************************************
      1 T  20 CA    1.962550274113E-03 -3.172674207633E-03 -1.583379381227E-04
      2 T  20 CA   -3.584519464617E-03 -3.467360405090E-03  3.377467153514E-01
      3 T  20 CA    1.165351125110E-03 -3.311900892684E-03 -3.326393028222E-01
      4 T  20 CA    2.428374922675E-03  3.413106305741E-01 -4.242516758025E-03
      5 T  20 CA   -3.037163415206E-03  3.359922497222E-01  3.340515114797E-01
      6 T  20 CA   -2.180439699149E-03  3.346614594833E-01 -3.323323042641E-01
      7 T  20 CA    5.084006126608E-03 -3.329558805854E-01 -4.681583045922E-03
      8 T  20 CA   -3.429026037310E-03 -3.319300936202E-01  3.354060691942E-01
      9 T  12 MG    4.429844154114E-03 -3.314712914154E-01 -3.315839326036E-01
     10 T  20 CA    3.362618976785E-01 -3.915807400924E-03 -2.133028332839E-03
     11 T  20 CA    3.411496337142E-01 -1.893901794849E-03  3.342305582661E-01
     12 T  12 MG    3.312560803482E-01 -6.533203497172E-03 -3.341249982673E-01
     13 T  12 MG    3.365868219509E-01  3.423374732145E-01 -9.558911524604E-03
     14 T  20 CA    3.366375525199E-01  3.312444101525E-01  3.302926054931E-01
     15 T  20 CA    3.356813285266E-01  3.376519463157E-01 -3.328114284058E-01
     16 T  12 MG    3.339665067629E-01 -3.310337654311E-01 -4.809021468023E-03
     17 T  20 CA    3.381170016299E-01 -3.324799275176E-01  3.330725097055E-01
     18 T  12 MG    3.390174707187E-01 -3.410886608690E-01 -3.278593633611E-01
     19 T  20 CA   -3.364432217449E-01  1.014386901207E-03  1.717263066059E-03
     20 T  12 MG   -3.368313957147E-01 -1.592177713520E-04  3.350580604950E-01
     21 T  20 CA   -3.383360561118E-01 -7.753087049393E-03 -3.293274069095E-01
     22 T  20 CA   -3.395517896336E-01  3.373488468752E-01 -1.931108141195E-03
     23 T  20 CA   -3.329686795011E-01  3.379070961938E-01  3.324586444867E-01
     24 T  12 MG   -3.364649493036E-01  3.448837991267E-01 -3.430503374370E-01
     25 T  12 MG   -3.274078131516E-01 -3.385427415298E-01  4.141477571586E-03
     26 T  12 MG   -3.347643472363E-01 -3.357135436005E-01  3.378999280068E-01
     27 T  20 CA   -3.384300115820E-01 -3.304572200420E-01 -3.331013917808E-01
     28 T   8 O    -1.784559396557E-01 -1.635051676696E-01  1.790240292286E-01
     29 T   8 O    -1.681748940238E-01 -1.666467352753E-01  4.996291572087E-01
     30 T   8 O    -1.658036890972E-01 -1.813147510391E-01 -1.675372975319E-01
     31 T   8 O    -1.711116526930E-01  1.611884384633E-01  1.714815026227E-01
     32 T   8 O    -1.750952360529E-01  1.708948707924E-01 -4.920862865406E-01
     33 T   8 O    -1.727486519289E-01  1.736615819730E-01 -1.742833423761E-01
     34 T   8 O    -1.775684617347E-01 -4.867380153781E-01  1.658306687100E-01
     35 T   8 O    -1.810420005445E-01 -4.989112934023E-01  4.990457209879E-01
     36 T   8 O    -1.708694051943E-01 -4.932196241314E-01 -1.602771445050E-01
     37 T   8 O     1.708151907802E-01 -1.734257175536E-01  1.627351820589E-01
     38 T   8 O     1.648640410203E-01 -1.800409613939E-01 -4.859788680849E-01
     39 T   8 O     1.892998254309E-01 -1.725666983578E-01 -1.757125839522E-01
     40 T   8 O     1.711897415040E-01  1.716210737692E-01  1.619862912118E-01
     41 T   8 O     1.724581113343E-01  1.610283400256E-01 -4.935561443029E-01
     42 T   8 O     1.702565869580E-01  1.621902848845E-01 -1.712512424558E-01
     43 T   8 O     1.809765279759E-01  4.993875336455E-01  1.519538914022E-01
     44 T   8 O     1.589204241664E-01 -4.916439214966E-01 -4.914007652080E-01
     45 T   8 O     1.735808757550E-01 -4.913962542564E-01 -1.746036469227E-01
     46 T   8 O    -4.839584088157E-01 -1.820654235399E-01  1.678913915709E-01
     47 T   8 O    -4.997031093304E-01 -1.652878153940E-01 -4.991959072718E-01
     48 T   8 O     4.892296351474E-01 -1.739993770974E-01 -1.603623122049E-01
     49 T   8 O    -4.982857624419E-01  1.659160826404E-01  1.669411317572E-01
     50 T   8 O    -4.972662707871E-01  1.556817178920E-01  4.966465025947E-01
     51 T   8 O     4.937895551561E-01  1.738303231156E-01 -1.614705802925E-01
     52 T   8 O    -4.998311113691E-01 -4.868219607437E-01  1.534442286295E-01
     53 T   8 O    -4.912321710509E-01 -4.950895398163E-01 -4.917064538240E-01
     54 T   8 O     4.854512416403E-01  4.988009884142E-01 -1.689174925672E-01

 T = ATOM BELONGING TO THE ASYMMETRIC UNIT

 ****    1 SYMMOPS - TRANSLATORS IN FRACTIONAL UNITS
 **** MATRICES AND TRANSLATORS IN THE CRYSTALLOGRAPHIC REFERENCE FRAME
   V INV                    ROTATION MATRICES                   TRANSLATORS
   1   1  1.00  0.00  0.00  0.00  1.00  0.00  0.00  0.00  1.00  0.00  0.00  0.00

 DIRECT LATTICE VECTORS CARTESIAN COMPONENTS (ANGSTROM)
          X                    Y                    Z
   0.383867132621E-02   0.701997628718E+01   0.700288949244E+01
   0.699627874519E+01   0.135993240964E-02   0.699949630903E+01
   0.699749205605E+01   0.701063729485E+01   0.722646069608E-02


 CARTESIAN COORDINATES - PRIMITIVE CELL
 *******************************************************************************
 *      ATOM          X(ANGSTROM)         Y(ANGSTROM)         Z(ANGSTROM)
 *******************************************************************************
    1    20 CA   -2.329734800300E-02  1.266269191000E-02 -8.464742936000E-03
    2    20 CA    2.339107577932E+00  2.342651761837E+00 -4.693105668800E-02
    3    20 CA   -2.350807387450E+00 -2.323837268795E+00 -1.742461777300E-02
    4    20 CA    2.358226654614E+00 -1.223145244600E-02  2.405977481785E+00
    5    20 CA    4.688206574498E+00  2.321050096375E+00  2.332921602144E+00
    6    20 CA    1.588382676900E-02 -2.344712764576E+00  2.324790685835E+00
    7    20 CA   -2.362191974771E+00  2.415924259000E-03 -2.294954555420E+00
    8    20 CA    2.471268295000E-02  2.326887213650E+00 -2.344932756780E+00
    9    12 MG   -4.639304480362E+00 -2.293968061918E+00 -2.291506549988E+00
   10    20 CA   -4.103112999900E-02  2.345591334771E+00  2.327380816266E+00
   11    20 CA    2.326834972800E+00  4.738028980334E+00  2.378192130657E+00
   12    12 MG   -2.382473550651E+00 -1.702822968100E-02  2.271606049445E+00
   13    12 MG    2.329492026257E+00  2.296283002865E+00  4.753201121843E+00
   14    20 CA    4.629990350243E+00  4.679199764356E+00  4.678366452083E+00
   15    20 CA    3.475037913900E-02  2.371393799700E-02  4.711727751614E+00
   16    12 MG   -2.348373598892E+00  2.310272469386E+00  2.162616953300E-02
   17    20 CA    5.847910698000E-03  4.708171741936E+00  4.301090784400E-02
   18    12 MG   -4.679243262240E+00  8.092766761500E-02 -1.571620215800E-02
   19    20 CA    1.782197323100E-02 -2.349782950638E+00 -2.348962095255E+00
   20    12 MG    2.342159199699E+00 -1.557809237400E-02 -2.357486202072E+00
   21    20 CA   -2.360007432739E+00 -4.683916635773E+00 -2.425977588007E+00
   22    20 CA    2.345370225511E+00 -2.396725038622E+00 -1.658560628300E-02
   23    20 CA    4.689190801388E+00 -6.225731626000E-03  3.583910494100E-02
   24    12 MG    1.111960399700E-02 -4.766508436569E+00  5.530698119900E-02
   25    12 MG   -2.340816241480E+00 -2.269821082689E+00 -4.662399476024E+00
   26    12 MG    1.442148210200E-02  1.839951009100E-02 -4.691701618479E+00
   27    20 CA   -4.644144289201E+00 -4.711473095844E+00 -4.685429208126E+00
   28     8 O     1.081064593750E-01  2.093715318000E-03 -2.392867332178E+00
   29     8 O     2.329598478434E+00  2.321908406680E+00 -2.340542856255E+00
   30     8 O    -2.441505913323E+00 -2.338727767951E+00 -2.431427544553E+00
   31     8 O     2.327002856958E+00  1.214078680000E-03 -6.879891025700E-02
   32     8 O     4.749078194216E+00  2.331866822528E+00 -2.632415290000E-02
   33     8 O    -5.224594262000E-03 -2.434292572103E+00  4.544430890000E-03
   34     8 O     4.750641073709E+00 -8.324971843300E-02  2.350281420865E+00
   35     8 O     6.997129774906E+00  2.228399439359E+00  2.243157763312E+00
   36     8 O     2.423382815242E+00 -2.322454912390E+00  2.349469571681E+00
   37     8 O    -7.394081451700E-02  2.339760078040E+00 -1.651676584600E-02
   38     8 O     2.337874894621E+00  4.760712532778E+00 -1.019568307020E-01
   39     8 O    -2.436145474390E+00  9.678841241700E-02  1.164960101320E-01
   40     8 O     2.334863797734E+00  2.337608453451E+00  2.401254501958E+00
   41     8 O     4.671098019777E+00  4.761365022255E+00  2.338482164025E+00
   42     8 O    -6.294720678100E-02 -5.162576144000E-03  2.326300823864E+00
   43     8 O     4.557845244639E+00  2.336423686381E+00  4.763917913492E+00
   44     8 O     7.116129975467E+00  4.681913702668E+00  4.674814036067E+00
   45     8 O     2.337212263702E+00 -4.857540507000E-03  4.774275965613E+00
   46     8 O    -9.698086009100E-02  4.799377787873E+00  2.340629237039E+00
   47     8 O     2.349893506152E+00  7.022803378687E+00  2.350211426085E+00
   48     8 O    -2.337604157634E+00  2.309901803696E+00  2.206954221651E+00
   49     8 O     2.330890321819E+00  4.692611409598E+00  4.675984763980E+00
   50     8 O     4.566402480025E+00  7.011199067901E+00  4.613871356000E+00
   51     8 O     8.817178780700E-02  2.334615693323E+00  4.673511531522E+00
   52     8 O     4.665981363400E+00  4.587613457131E+00  7.095724104976E+00
   53     8 O     7.091227364792E+00  7.135686430554E+00  7.100636949219E+00
   54     8 O     2.309615428717E+00  2.224315267383E+00  6.889696400900E+00
 WARNING **** CRYSTA **** TESTGEOM  DIRECTIVE - GEOMETRY EDITING COMPLETE
 TTTTTTTTTTTTTTTTTTTTTTTTTTTTTT END         TELAPSE        0.01 TCPU        0.01
 EEEEEEEEEE TERMINATION  DATE 10 03 2023 TIME 10:31:23.0
Fri 10 Mar 2023 10:31:23 GMT
Contents of temporary directory:
total 8
-rw-r--r--  1 brunocamino  admin  4027 10 Mar 10:31 fort.34
SCF abnormal end - no wf written in fort.9
geometry input file fort.34 saved as /Users/brunocamino/Desktop/Imperial/cmsg_icl/solid-solutions/./data/crystal/testgeom_opt/CaMgO_testgeom_2688.gui
temporary directory /Users/brunocamino/crystal/tmp removed
