date Fri 10 Mar 2023 10:31:41 GMT
hostname MacBook-Pro-8
system Darwin MacBook-Pro-8 21.6.0 Darwin Kernel Version 21.6.0: Mon Aug 22 20:20:05 PDT 2022; root:xnu-8020.140.49~2/RELEASE_ARM64_T8101 arm64
user brunocamino
output data in /Users/brunocamino/Desktop/Imperial/cmsg_icl/solid-solutions/./data/crystal/testgeom_opt/CaMgO_testgeom_2916.out
crystal executable in /Users/brunocamino/crystal
input data in /Users/brunocamino/Desktop/Imperial/cmsg_icl/solid-solutions/./data/crystal/testgeom_opt/CaMgO_testgeom_2916.d12
temporary directory /Users/brunocamino/crystal/tmp
external geometry input from /Users/brunocamino/Desktop/Imperial/cmsg_icl/solid-solutions/./data/crystal/testgeom_opt/CaMgO_testgeom_2916.gui
external geometry input saved in /Users/brunocamino/Desktop/Imperial/cmsg_icl/solid-solutions/./data/crystal/testgeom_opt/CaMgO_testgeom_2916_inp.gui
Bulk 
EXTERNAL
EXTPRT
TESTGEOM
END

         
 *******************************************************************************
 *                                                                             *
 *                               CRYSTAL17                                     *
 *                      public : 1.0.1 - Feb 1st, 2017                         *
 *                       HTTP://WWW.CRYSTAL.UNITO.IT                           *
 *                                                                             *
 *                              MAIN AUTHORS                                   *
 *                                                                             *
 *  R. DOVESI(1,11), V.R. SAUNDERS(2), C. ROETTI(1,11), R. ORLANDO(1,11),      *
 *  C.M. ZICOVICH-WILSON(1,3), F. PASCALE(4), B. CIVALLERI(1,11),              *
 *  K. DOLL(5), N.M. HARRISON(2,6), I.J. BUSH(7), Ph. D'ARCO(8),               *
 *  M. LLUNELL(9), M. CAUSA'(10), Y. NOEL(8), L. MASCHIO(1,11), A. ERBA(1,11)  *
 *  M. RE'RAT(14), S. CASASSA(1,11)                                            *
 *                                                                             *
 *        CONTRIBUTIONS TO THE CODE HAVE ALSO BEEN GIVEN BY                    *
 *                                                                             *
 *  M. FERRABONE(1,11), M. DE LA PIERRE(1,11), M. FERRERO(1,11),               *
 *  J. BAIMA(1,11), E. ALBANESE(1,11), M.F. PEINTINGER(12), R. BAST(13),       *
 *  B. KIRTMAN(15), V. LACIVITA(1,11), R. DEMICHELIS(1,16)                     *
 *  G. BRANDEBURG(17), S. SALUSTRO(1,11), G. SANSONE(1,11)                     *
 *  M.T. RUGGIERO(18)                                                          *
 *                                                                             *
 * (1) THEORETICAL CHEMISTRY GROUP - UNIVERSITA' DI TORINO - TORINO (ITALY)    *

 * (2) COMPUTATIONAL SCIENCE & ENGINEERING DEPARTMENT - STFC DARESBURY (UK)    *
 * (3) UNIVERSIDAD AUTONOMA DEL ESTADO DE MORELOS - CUERNAVACA (MEXICO)        *
 * (4) UNIVERSITE' DE LORRAINE - NANCY (FRANCE)                                *
 * (5) UNIVERSITAET STUTTGART- STUTTGART (GERMANY)                             *
 * (6) IMPERIAL COLLEGE - LONDON (UK)                                          *
 * (7) OXFORD E-RESEARCH CENTRE - OXFORD (UK)                                  *
 * (8) UPMC - SORBONNE UNIVERSITES - PARIS (FRANCE)                            *
 * (9) UNIVERSIDAD DE BARCELONA - BARCELONA (SPAIN)                            *
 *(10) UNIVERSITA' DI NAPOLI "FEDERICO II" - NAPOLI (ITALY)                    *
 *(11) NIS - NANOSTRUCTURED INTERFACES AND SURFACES - TORINO (ITALY)           *
 *(12) MPI FUER CHEMISCHE ENERGIEKONVERSION - MUELHEIM AN DER RUHR (GERMANY)   *
 *(13) UNIVERSITY OF TROMSO - TROMSO (NORWAY)                                  *
 *(14) UNIVERSITE' DE PAU ET DES PAYS DE L'ADOUR - PAU (FRANCE)                *
 *(15) UNIVERSITY OF CALIFORNIA SANTA BARBARA - SANTA BARBARA (USA)            *
 *(16) CURTIN UNIVERSITY - PERTH (AUSTRALIA)                                   *
 *(17) UNIVERSITY COLLEGE LONDON - LONDON (UK)                                 *
 *(18) CAMBRIDGE UNIVERSITY - CAMBRIDGE (UK)                                   *
 *                                                                             *
 *******************************************************************************
 EEEEEEEEEE STARTING  DATE 10 03 2023 TIME 10:31:41.5
 Bulk                                                                            

 GEOMETRY INPUT FROM EXTERNAL FILE (FORTRAN UNIT 34)
 3D - CRYSTAL 

 *******************************************************************************
 LATTICE PARAMETERS  (ANGSTROMS AND DEGREES) - PRIMITIVE CELL
       A          B          C        ALPHA      BETA     GAMMA        VOLUME
    9.91605    9.92057    9.91827    59.95451  59.83374  59.98404    688.725014
 INFORMATION **** CHKGRP **** SPGR WITH NO INVERSION

 NUMBER OF IRREDUCIBLE ATOMS IN THE CELL:   54

 CARTESIAN COORDINATES (ANGSTROM) - IRREDUCIBLE ATOMS AND SYMMETRY RELATED

 AT.IRR.  AT  AT.N.          X                   Y                   Z
     1     1    20    1.667514108100E-02 -3.718735788600E-02 -3.561324437800E-02
     2     2    20    2.350048961915E+00  2.336201031525E+00 -6.974645924500E-02
     3     3    20   -2.338032986345E+00 -2.319077084674E+00  6.300687766000E-03
     4     4    20    2.323158014274E+00 -1.684609198500E-02  2.384280204559E+00
     5     5    20    4.670416483447E+00  2.360206254036E+00  2.389316585727E+00
     6     6    20    8.635650299000E-03 -2.315222718890E+00  2.352402341278E+00
     7     7    20   -2.374959963652E+00 -3.735391208800E-02 -2.327333513447E+00
     8     8    20    3.447204549800E-02  2.357953222465E+00 -2.349302437454E+00
     9     9    12   -4.667297814260E+00 -2.338599313018E+00 -2.281614109518E+00
    10    10    20   -2.190280266300E-02  2.327268216291E+00  2.400458328096E+00
    11    11    20    2.352866965967E+00  4.710149285216E+00  2.397803992335E+00
    12    12    12   -2.392395807876E+00  2.200090120000E-02  2.445975227579E+00
    13    13    12    2.348722977872E+00  2.397541055263E+00  4.737783214302E+00
    14    14    12    4.589139331729E+00  4.735671281871E+00  4.684414355407E+00
    15    15    20   -1.969229940500E-02  7.358000945000E-03  4.667939486046E+00
    16    16    20   -2.390432090599E+00  2.329549972083E+00 -4.174582839300E-02
    17    17    20    8.307471329000E-03  4.689170772793E+00 -1.218531680200E-02
    18    18    12   -4.651611138423E+00 -1.848943763700E-02 -1.183344799420E-01
    19    19    12    8.852603373000E-02 -2.391427041112E+00 -2.322536354087E+00
    20    20    12    2.424090839479E+00 -7.866633285900E-02 -2.320222317800E+00
    21    21    12   -2.436104193271E+00 -4.573432542675E+00 -2.362722364368E+00
    22    22    12    2.354552365078E+00 -2.261138191196E+00 -1.219669745610E-01
    23    23    20    4.652314139987E+00 -1.908845366800E-02 -4.815057408400E-02
    24    24    20    4.944366159200E-02 -4.658220113764E+00 -5.419144845400E-02
    25    25    20   -2.367395153701E+00 -2.377214643899E+00 -4.639895425761E+00
    26    26    20    5.695011275100E-02 -2.290858223800E-02 -4.657901250212E+00
    27    27    20   -4.651142021711E+00 -4.702682604713E+00 -4.670429967624E+00
    28    28     8    1.179625442280E-01 -1.096927723060E-01 -2.345608646834E+00
    29    29     8    2.436167254523E+00  2.388278973165E+00 -2.332405742012E+00
    30    30     8   -2.430351911968E+00 -2.442978303866E+00 -2.333077438429E+00
    31    31     8    2.340915436571E+00 -9.050987251500E-02 -7.830806339900E-02
    32    32     8    4.670498580919E+00  2.338890598397E+00 -6.692999758600E-02
    33    33     8    9.032909202400E-02 -2.332856421895E+00 -9.832101322200E-02
    34    34     8    4.677447490194E+00 -7.739072342000E-03  2.338615027983E+00
    35    35     8    7.024365411650E+00  2.334806083757E+00  2.341639779785E+00
    36    36     8    2.334886963856E+00 -2.335842835799E+00  2.343893382248E+00
    37    37     8   -1.528166941000E-03  2.332955461550E+00 -1.692415782400E-02
    38    38     8    2.331766011778E+00  4.772351462987E+00 -6.077656623800E-02
    39    39     8   -2.455537495028E+00 -1.905611245000E-03 -1.636860423600E-02
    40    40     8    2.343495945592E+00  2.343091215191E+00  2.424199603430E+00
    41    41     8    4.679904291316E+00  4.776326707067E+00  2.439782801808E+00
    42    42     8   -8.004051116800E-02  1.105436683000E-03  2.327585009323E+00
    43    43     8    4.584584464041E+00  2.447437672381E+00  4.661703875812E+00
    44    44     8    7.063959267169E+00  4.672107312500E+00  4.697011261167E+00
    45    45     8    2.333762002903E+00 -2.757762546000E-02  4.756173970673E+00
    46    46     8    1.811437470800E-02  4.671563698952E+00  2.432907419177E+00
    47    47     8    2.453065805976E+00  7.012950971325E+00  2.370047752492E+00
    48    48     8   -2.332140548123E+00  2.237734897943E+00  2.449562552661E+00
    49    49     8    2.353377625762E+00  4.665831427892E+00  4.776055932745E+00
    50    50     8    4.547708820699E+00  6.924135556635E+00  4.602863632428E+00
    51    51     8    3.306963804400E-02  2.477143586531E+00  4.669003211837E+00
    52    52     8    4.566986704242E+00  4.674377776284E+00  6.947475337509E+00
    53    53     8    7.118133093882E+00  7.015122905293E+00  7.004062888368E+00
    54    54     8    2.352642700827E+00  2.307307607737E+00  6.859924003321E+00

 SYMMETRY CHANGED DURING OLD RUN :  INFORMATION ON SPACE GROUP LOST 
 NUMBER OF SYMMETRY OPERATORS         :    1
 *******************************************************************************
 LATTICE PARAMETERS (ANGSTROMS AND DEGREES) - BOHR = 0.5291772083 ANGSTROM
 PRIMITIVE CELL - CENTRING CODE 1/0 VOLUME=   688.725014 - DENSITY  3.296 g/cm^3
         A              B              C           ALPHA      BETA       GAMMA 
     9.91604554     9.92056815     9.91826842    59.954511  59.833742  59.984038
 *******************************************************************************
 ATOMS IN THE ASYMMETRIC UNIT   54 - ATOMS IN THE UNIT CELL:   54
     ATOM                 X/A                 Y/B                 Z/C    
 *******************************************************************************
      1 T  20 CA   -6.387707127940E-03  1.299864122109E-03  1.090532477959E-03
      2 T  20 CA   -6.349020659899E-03 -4.143632105518E-03  3.393549876925E-01
      3 T  20 CA    2.175321311494E-03 -7.454543737743E-04 -3.327392443672E-01
      4 T  20 CA    3.303451067884E-03  3.367019225388E-01 -5.640511023882E-03
      5 T  20 CA    5.411748193497E-03  3.347792728360E-01  3.310762225294E-01
      6 T  20 CA    2.545274120271E-03  3.334328888574E-01 -3.324945889642E-01
      7 T  20 CA    6.051257540235E-04 -3.324668108717E-01 -5.994945409455E-03
      8 T  20 CA   -2.357433045349E-03 -3.331878440099E-01  3.383975314074E-01
      9 T  12 MG    3.605313148051E-03 -3.284178491837E-01 -3.370168020986E-01
     10 T  20 CA    3.390508613459E-01  3.671785675673E-03 -7.493991876323E-03
     11 T  20 CA    3.390595356372E-01  2.744875387560E-03  3.321544670837E-01
     12 T  12 MG    3.473328334246E-01  2.425804941915E-03 -3.443746673152E-01
     13 T  12 MG    3.418159033674E-01  3.341951649956E-01 -1.790409960095E-04
     14 T  12 MG    3.446067195028E-01  3.232722874602E-01  3.303050792809E-01
     15 T  20 CA    3.356498558315E-01  3.309258002707E-01 -3.347086159470E-01
     16 T  20 CA    3.338093161910E-01 -3.393539856172E-01 -1.991638544013E-03
     17 T  20 CA    3.327509794844E-01 -3.346178522029E-01  3.354099546337E-01
     18 T  12 MG    3.225045141868E-01 -3.384703578279E-01 -3.253718271843E-01
     19 T  12 MG   -3.428120915334E-01  1.120490799909E-02  2.114826395344E-03
     20 T  12 MG   -3.446454133145E-01  1.283919016868E-02  3.336117294298E-01
     21 T  12 MG   -3.208612029660E-01 -1.592060519497E-02 -3.308770338535E-01
     22 T  12 MG   -3.380744150566E-01  3.202466011298E-01  1.600664507643E-02
     23 T  20 CA   -3.371353480182E-01  3.293283395503E-01  3.346520084022E-01
     24 T  20 CA   -3.394157725699E-01  3.317917912805E-01 -3.243305668891E-01
     25 T  20 CA   -3.320351758174E-01 -3.299945260123E-01 -6.708547184784E-03
     26 T  20 CA   -3.387020237061E-01 -3.264472400095E-01  3.355466379584E-01
     27 T  20 CA   -3.368266325441E-01 -3.290438966817E-01 -3.333880640496E-01
     28 T   8 O    -1.839361938978E-01 -1.510324675948E-01  1.683654021723E-01
     29 T   8 O    -1.705502390065E-01 -1.630640219196E-01 -4.889673656375E-01
     30 T   8 O    -1.673069296615E-01 -1.652996674065E-01 -1.808631328908E-01
     31 T   8 O    -1.792698498294E-01  1.676212251899E-01  1.664933610229E-01
     32 T   8 O    -1.717145037171E-01  1.611592481517E-01 -4.947789057586E-01
     33 T   8 O    -1.797534942230E-01  1.657576434599E-01 -1.526485540139E-01
     34 T   8 O    -1.674879771810E-01 -4.994992760551E-01  1.665687798474E-01
     35 T   8 O    -1.679586306982E-01 -4.991292422167E-01 -4.990524390727E-01
     36 T   8 O    -1.657056915438E-01 -4.999965341363E-01 -1.670638467733E-01
     37 T   8 O     1.651780975136E-01 -1.676568007757E-01  1.672451796737E-01
     38 T   8 O     1.692322528464E-01 -1.785053922375E-01 -4.891001881140E-01
     39 T   8 O     1.741023337549E-01 -1.759479152344E-01 -1.744977805787E-01
     40 T   8 O     1.729065119274E-01  1.727321990037E-01  1.610241636294E-01
     41 T   8 O     1.805482768278E-01  1.667828179822E-01 -4.997878197771E-01
     42 T   8 O     1.721992946922E-01  1.601909333619E-01 -1.720987896809E-01
     43 T   8 O     1.802171118909E-01  4.844808801988E-01  1.686444230741E-01
     44 T   8 O     1.641910494286E-01 -4.950071656313E-01 -4.982115066465E-01
     45 T   8 O     1.713517039575E-01 -4.926467426987E-01 -1.752713296080E-01
     46 T   8 O    -4.944007598690E-01 -1.583135235926E-01  1.599977263416E-01
     47 T   8 O     4.940473054107E-01 -1.562879640256E-01 -4.947012434200E-01
     48 T   8 O    -4.987909268744E-01 -1.510093858150E-01 -1.825278631453E-01
     49 T   8 O    -4.941104790469E-01  1.755253295291E-01  1.589555431476E-01
     50 T   8 O     4.977164801968E-01  1.584671346090E-01  4.890294882487E-01
     51 T   8 O    -4.920117927609E-01  1.586628522547E-01 -1.551244185786E-01
     52 T   8 O    -4.963894838161E-01  4.874348963692E-01  1.625149565168E-01
     53 T   8 O     4.922520455000E-01 -4.936994506718E-01 -4.924658127222E-01
     54 T   8 O     4.868199719721E-01  4.922299467786E-01 -1.580885639210E-01

 T = ATOM BELONGING TO THE ASYMMETRIC UNIT
 *******************************************************************************
 * GEOMETRY EDITING - INPUT COORDINATES ARE GIVEN IN ANGSTROM         
 *******************************************************************************

 GCALCO - MAX INDICES DIRECT LATTICE VECTOR    15    14    15
 NO.OF VECTORS CREATED 6999 STARS 3500 RMAX   198.38722 BOHR

 GEOMETRY FOR WAVE FUNCTION - DIMENSIONALITY OF THE SYSTEM    3
 (NON PERIODIC DIRECTION: LATTICE PARAMETER FORMALLY SET TO 500)
 *******************************************************************************
 LATTICE PARAMETERS (ANGSTROMS AND DEGREES) - BOHR = 0.5291772083 ANGSTROM
 PRIMITIVE CELL - CENTRING CODE 1/0 VOLUME=   688.725014 - DENSITY  3.296 g/cm^3
         A              B              C           ALPHA      BETA       GAMMA 
     9.91604554     9.92056815     9.91826842    59.954511  59.833742  59.984038
 *******************************************************************************
 ATOMS IN THE ASYMMETRIC UNIT   54 - ATOMS IN THE UNIT CELL:   54
     ATOM                 X/A                 Y/B                 Z/C    
 *******************************************************************************
      1 T  20 CA   -6.387707127940E-03  1.299864122109E-03  1.090532477959E-03
      2 T  20 CA   -6.349020659899E-03 -4.143632105518E-03  3.393549876925E-01
      3 T  20 CA    2.175321311494E-03 -7.454543737743E-04 -3.327392443672E-01
      4 T  20 CA    3.303451067884E-03  3.367019225388E-01 -5.640511023882E-03
      5 T  20 CA    5.411748193497E-03  3.347792728360E-01  3.310762225294E-01
      6 T  20 CA    2.545274120271E-03  3.334328888574E-01 -3.324945889642E-01
      7 T  20 CA    6.051257540235E-04 -3.324668108717E-01 -5.994945409455E-03
      8 T  20 CA   -2.357433045349E-03 -3.331878440099E-01  3.383975314074E-01
      9 T  12 MG    3.605313148051E-03 -3.284178491837E-01 -3.370168020986E-01
     10 T  20 CA    3.390508613459E-01  3.671785675673E-03 -7.493991876323E-03
     11 T  20 CA    3.390595356372E-01  2.744875387560E-03  3.321544670837E-01
     12 T  12 MG    3.473328334246E-01  2.425804941915E-03 -3.443746673152E-01
     13 T  12 MG    3.418159033674E-01  3.341951649956E-01 -1.790409960095E-04
     14 T  12 MG    3.446067195028E-01  3.232722874602E-01  3.303050792809E-01
     15 T  20 CA    3.356498558315E-01  3.309258002707E-01 -3.347086159470E-01
     16 T  20 CA    3.338093161910E-01 -3.393539856172E-01 -1.991638544013E-03
     17 T  20 CA    3.327509794844E-01 -3.346178522029E-01  3.354099546337E-01
     18 T  12 MG    3.225045141868E-01 -3.384703578279E-01 -3.253718271843E-01
     19 T  12 MG   -3.428120915334E-01  1.120490799909E-02  2.114826395344E-03
     20 T  12 MG   -3.446454133145E-01  1.283919016868E-02  3.336117294298E-01
     21 T  12 MG   -3.208612029660E-01 -1.592060519497E-02 -3.308770338535E-01
     22 T  12 MG   -3.380744150566E-01  3.202466011298E-01  1.600664507643E-02
     23 T  20 CA   -3.371353480182E-01  3.293283395503E-01  3.346520084022E-01
     24 T  20 CA   -3.394157725699E-01  3.317917912805E-01 -3.243305668891E-01
     25 T  20 CA   -3.320351758174E-01 -3.299945260123E-01 -6.708547184784E-03
     26 T  20 CA   -3.387020237061E-01 -3.264472400095E-01  3.355466379584E-01
     27 T  20 CA   -3.368266325441E-01 -3.290438966817E-01 -3.333880640496E-01
     28 T   8 O    -1.839361938978E-01 -1.510324675948E-01  1.683654021723E-01
     29 T   8 O    -1.705502390065E-01 -1.630640219196E-01 -4.889673656375E-01
     30 T   8 O    -1.673069296615E-01 -1.652996674065E-01 -1.808631328908E-01
     31 T   8 O    -1.792698498294E-01  1.676212251899E-01  1.664933610229E-01
     32 T   8 O    -1.717145037171E-01  1.611592481517E-01 -4.947789057586E-01
     33 T   8 O    -1.797534942230E-01  1.657576434599E-01 -1.526485540139E-01
     34 T   8 O    -1.674879771810E-01 -4.994992760551E-01  1.665687798474E-01
     35 T   8 O    -1.679586306982E-01 -4.991292422167E-01 -4.990524390727E-01
     36 T   8 O    -1.657056915438E-01 -4.999965341363E-01 -1.670638467733E-01
     37 T   8 O     1.651780975136E-01 -1.676568007757E-01  1.672451796737E-01
     38 T   8 O     1.692322528464E-01 -1.785053922375E-01 -4.891001881140E-01
     39 T   8 O     1.741023337549E-01 -1.759479152344E-01 -1.744977805787E-01
     40 T   8 O     1.729065119274E-01  1.727321990037E-01  1.610241636294E-01
     41 T   8 O     1.805482768278E-01  1.667828179822E-01 -4.997878197771E-01
     42 T   8 O     1.721992946922E-01  1.601909333619E-01 -1.720987896809E-01
     43 T   8 O     1.802171118909E-01  4.844808801988E-01  1.686444230741E-01
     44 T   8 O     1.641910494286E-01 -4.950071656313E-01 -4.982115066465E-01
     45 T   8 O     1.713517039575E-01 -4.926467426987E-01 -1.752713296080E-01
     46 T   8 O    -4.944007598690E-01 -1.583135235926E-01  1.599977263416E-01
     47 T   8 O     4.940473054107E-01 -1.562879640256E-01 -4.947012434200E-01
     48 T   8 O    -4.987909268744E-01 -1.510093858150E-01 -1.825278631453E-01
     49 T   8 O    -4.941104790469E-01  1.755253295291E-01  1.589555431476E-01
     50 T   8 O     4.977164801968E-01  1.584671346090E-01  4.890294882487E-01
     51 T   8 O    -4.920117927609E-01  1.586628522547E-01 -1.551244185786E-01
     52 T   8 O    -4.963894838161E-01  4.874348963692E-01  1.625149565168E-01
     53 T   8 O     4.922520455000E-01 -4.936994506718E-01 -4.924658127222E-01
     54 T   8 O     4.868199719721E-01  4.922299467786E-01 -1.580885639210E-01

 T = ATOM BELONGING TO THE ASYMMETRIC UNIT

 ****    1 SYMMOPS - TRANSLATORS IN FRACTIONAL UNITS
 **** MATRICES AND TRANSLATORS IN THE CRYSTALLOGRAPHIC REFERENCE FRAME
   V INV                    ROTATION MATRICES                   TRANSLATORS
   1   1  1.00  0.00  0.00  0.00  1.00  0.00  0.00  0.00  1.00  0.00  0.00  0.00

 DIRECT LATTICE VECTORS CARTESIAN COMPONENTS (ANGSTROM)
          X                    Y                    Z
   0.143707533174E-01   0.701914657249E+01   0.700423686929E+01
   0.701705568211E+01  -0.137285406086E-02   0.701274555159E+01
   0.701099552275E+01   0.701554459451E+01   0.111441502188E-01


 CARTESIAN COORDINATES - PRIMITIVE CELL
 *******************************************************************************
 *      ATOM          X(ANGSTROM)         Y(ANGSTROM)         Z(ANGSTROM)
 *******************************************************************************
    1    20 CA    1.667514108100E-02 -3.718735788600E-02 -3.561324437800E-02
    2    20 CA    2.350048961915E+00  2.336201031525E+00 -6.974645924500E-02
    3    20 CA   -2.338032986345E+00 -2.319077084674E+00  6.300687766000E-03
    4    20 CA    2.323158014274E+00 -1.684609198500E-02  2.384280204559E+00
    5    20 CA    4.670416483447E+00  2.360206254036E+00  2.389316585727E+00
    6    20 CA    8.635650299000E-03 -2.315222718890E+00  2.352402341278E+00
    7    20 CA   -2.374959963652E+00 -3.735391208800E-02 -2.327333513447E+00
    8    20 CA    3.447204549800E-02  2.357953222465E+00 -2.349302437454E+00
    9    12 MG   -4.667297814260E+00 -2.338599313018E+00 -2.281614109518E+00
   10    20 CA   -2.190280266300E-02  2.327268216291E+00  2.400458328096E+00
   11    20 CA    2.352866965967E+00  4.710149285216E+00  2.397803992335E+00
   12    12 MG   -2.392395807876E+00  2.200090120000E-02  2.445975227579E+00
   13    12 MG    2.348722977872E+00  2.397541055263E+00  4.737783214302E+00
   14    12 MG    4.589139331729E+00  4.735671281871E+00  4.684414355407E+00
   15    20 CA   -1.969229940500E-02  7.358000945000E-03  4.667939486046E+00
   16    20 CA   -2.390432090599E+00  2.329549972083E+00 -4.174582839300E-02
   17    20 CA    8.307471329000E-03  4.689170772793E+00 -1.218531680200E-02
   18    12 MG   -4.651611138423E+00 -1.848943763700E-02 -1.183344799420E-01
   19    12 MG    8.852603373000E-02 -2.391427041112E+00 -2.322536354087E+00
   20    12 MG    2.424090839479E+00 -7.866633285900E-02 -2.320222317800E+00
   21    12 MG   -2.436104193271E+00 -4.573432542675E+00 -2.362722364368E+00
   22    12 MG    2.354552365078E+00 -2.261138191196E+00 -1.219669745610E-01
   23    20 CA    4.652314139987E+00 -1.908845366800E-02 -4.815057408400E-02
   24    20 CA    4.944366159200E-02 -4.658220113764E+00 -5.419144845400E-02
   25    20 CA   -2.367395153701E+00 -2.377214643899E+00 -4.639895425761E+00
   26    20 CA    5.695011275100E-02 -2.290858223800E-02 -4.657901250212E+00
   27    20 CA   -4.651142021711E+00 -4.702682604713E+00 -4.670429967624E+00
   28     8 O     1.179625442280E-01 -1.096927723060E-01 -2.345608646834E+00
   29     8 O     2.436167254523E+00  2.388278973165E+00 -2.332405742012E+00
   30     8 O    -2.430351911968E+00 -2.442978303866E+00 -2.333077438429E+00
   31     8 O     2.340915436571E+00 -9.050987251500E-02 -7.830806339900E-02
   32     8 O     4.670498580919E+00  2.338890598397E+00 -6.692999758600E-02
   33     8 O     9.032909202400E-02 -2.332856421895E+00 -9.832101322200E-02
   34     8 O     4.677447490194E+00 -7.739072342000E-03  2.338615027983E+00
   35     8 O     7.024365411650E+00  2.334806083757E+00  2.341639779785E+00
   36     8 O     2.334886963856E+00 -2.335842835799E+00  2.343893382248E+00
   37     8 O    -1.528166941000E-03  2.332955461550E+00 -1.692415782400E-02
   38     8 O     2.331766011778E+00  4.772351462987E+00 -6.077656623800E-02
   39     8 O    -2.455537495028E+00 -1.905611245000E-03 -1.636860423600E-02
   40     8 O     2.343495945592E+00  2.343091215191E+00  2.424199603430E+00
   41     8 O     4.679904291316E+00  4.776326707067E+00  2.439782801808E+00
   42     8 O    -8.004051116800E-02  1.105436683000E-03  2.327585009323E+00
   43     8 O     4.584584464041E+00  2.447437672381E+00  4.661703875812E+00
   44     8 O     7.063959267169E+00  4.672107312500E+00  4.697011261167E+00
   45     8 O     2.333762002903E+00 -2.757762546000E-02  4.756173970673E+00
   46     8 O     1.811437470800E-02  4.671563698952E+00  2.432907419177E+00
   47     8 O     2.453065805976E+00  7.012950971325E+00  2.370047752492E+00
   48     8 O    -2.332140548123E+00  2.237734897943E+00  2.449562552661E+00
   49     8 O     2.353377625762E+00  4.665831427892E+00  4.776055932745E+00
   50     8 O     4.547708820699E+00  6.924135556635E+00  4.602863632428E+00
   51     8 O     3.306963804400E-02  2.477143586531E+00  4.669003211837E+00
   52     8 O     4.566986704242E+00  4.674377776284E+00  6.947475337509E+00
   53     8 O     7.118133093882E+00  7.015122905293E+00  7.004062888368E+00
   54     8 O     2.352642700827E+00  2.307307607737E+00  6.859924003321E+00
 WARNING **** CRYSTA **** TESTGEOM  DIRECTIVE - GEOMETRY EDITING COMPLETE
 TTTTTTTTTTTTTTTTTTTTTTTTTTTTTT END         TELAPSE        0.01 TCPU        0.01
 EEEEEEEEEE TERMINATION  DATE 10 03 2023 TIME 10:31:41.5
Fri 10 Mar 2023 10:31:41 GMT
Contents of temporary directory:
total 8
-rw-r--r--  1 brunocamino  admin  4027 10 Mar 10:31 fort.34
SCF abnormal end - no wf written in fort.9
geometry input file fort.34 saved as /Users/brunocamino/Desktop/Imperial/cmsg_icl/solid-solutions/./data/crystal/testgeom_opt/CaMgO_testgeom_2916.gui
temporary directory /Users/brunocamino/crystal/tmp removed
