date Fri 10 Mar 2023 10:29:00 GMT
hostname MacBook-Pro-8
system Darwin MacBook-Pro-8 21.6.0 Darwin Kernel Version 21.6.0: Mon Aug 22 20:20:05 PDT 2022; root:xnu-8020.140.49~2/RELEASE_ARM64_T8101 arm64
user brunocamino
output data in /Users/brunocamino/Desktop/Imperial/cmsg_icl/solid-solutions/./data/crystal/testgeom_opt/CaMgO_testgeom_917.out
crystal executable in /Users/brunocamino/crystal
input data in /Users/brunocamino/Desktop/Imperial/cmsg_icl/solid-solutions/./data/crystal/testgeom_opt/CaMgO_testgeom_917.d12
temporary directory /Users/brunocamino/crystal/tmp
external geometry input from /Users/brunocamino/Desktop/Imperial/cmsg_icl/solid-solutions/./data/crystal/testgeom_opt/CaMgO_testgeom_917.gui
external geometry input saved in /Users/brunocamino/Desktop/Imperial/cmsg_icl/solid-solutions/./data/crystal/testgeom_opt/CaMgO_testgeom_917_inp.gui
Bulk 
EXTERNAL
EXTPRT
TESTGEOM
END

         
 *******************************************************************************
 *                                                                             *
 *                               CRYSTAL17                                     *
 *                      public : 1.0.1 - Feb 1st, 2017                         *
 *                       HTTP://WWW.CRYSTAL.UNITO.IT                           *
 *                                                                             *
 *                              MAIN AUTHORS                                   *
 *                                                                             *
 *  R. DOVESI(1,11), V.R. SAUNDERS(2), C. ROETTI(1,11), R. ORLANDO(1,11),      *
 *  C.M. ZICOVICH-WILSON(1,3), F. PASCALE(4), B. CIVALLERI(1,11),              *
 *  K. DOLL(5), N.M. HARRISON(2,6), I.J. BUSH(7), Ph. D'ARCO(8),               *
 *  M. LLUNELL(9), M. CAUSA'(10), Y. NOEL(8), L. MASCHIO(1,11), A. ERBA(1,11)  *
 *  M. RE'RAT(14), S. CASASSA(1,11)                                            *
 *                                                                             *
 *        CONTRIBUTIONS TO THE CODE HAVE ALSO BEEN GIVEN BY                    *
 *                                                                             *
 *  M. FERRABONE(1,11), M. DE LA PIERRE(1,11), M. FERRERO(1,11),               *
 *  J. BAIMA(1,11), E. ALBANESE(1,11), M.F. PEINTINGER(12), R. BAST(13),       *
 *  B. KIRTMAN(15), V. LACIVITA(1,11), R. DEMICHELIS(1,16)                     *
 *  G. BRANDEBURG(17), S. SALUSTRO(1,11), G. SANSONE(1,11)                     *
 *  M.T. RUGGIERO(18)                                                          *
 *                                                                             *
 * (1) THEORETICAL CHEMISTRY GROUP - UNIVERSITA' DI TORINO - TORINO (ITALY)    *

 * (2) COMPUTATIONAL SCIENCE & ENGINEERING DEPARTMENT - STFC DARESBURY (UK)    *
 * (3) UNIVERSIDAD AUTONOMA DEL ESTADO DE MORELOS - CUERNAVACA (MEXICO)        *
 * (4) UNIVERSITE' DE LORRAINE - NANCY (FRANCE)                                *
 * (5) UNIVERSITAET STUTTGART- STUTTGART (GERMANY)                             *
 * (6) IMPERIAL COLLEGE - LONDON (UK)                                          *
 * (7) OXFORD E-RESEARCH CENTRE - OXFORD (UK)                                  *
 * (8) UPMC - SORBONNE UNIVERSITES - PARIS (FRANCE)                            *
 * (9) UNIVERSIDAD DE BARCELONA - BARCELONA (SPAIN)                            *
 *(10) UNIVERSITA' DI NAPOLI "FEDERICO II" - NAPOLI (ITALY)                    *
 *(11) NIS - NANOSTRUCTURED INTERFACES AND SURFACES - TORINO (ITALY)           *
 *(12) MPI FUER CHEMISCHE ENERGIEKONVERSION - MUELHEIM AN DER RUHR (GERMANY)   *
 *(13) UNIVERSITY OF TROMSO - TROMSO (NORWAY)                                  *
 *(14) UNIVERSITE' DE PAU ET DES PAYS DE L'ADOUR - PAU (FRANCE)                *
 *(15) UNIVERSITY OF CALIFORNIA SANTA BARBARA - SANTA BARBARA (USA)            *
 *(16) CURTIN UNIVERSITY - PERTH (AUSTRALIA)                                   *
 *(17) UNIVERSITY COLLEGE LONDON - LONDON (UK)                                 *
 *(18) CAMBRIDGE UNIVERSITY - CAMBRIDGE (UK)                                   *
 *                                                                             *
 *******************************************************************************
 EEEEEEEEEE STARTING  DATE 10 03 2023 TIME 10:29:00.3
 Bulk                                                                            

 GEOMETRY INPUT FROM EXTERNAL FILE (FORTRAN UNIT 34)
 3D - CRYSTAL 

 *******************************************************************************
 LATTICE PARAMETERS  (ANGSTROMS AND DEGREES) - PRIMITIVE CELL
       A          B          C        ALPHA      BETA     GAMMA        VOLUME
    9.89254    9.93484    9.90966    59.89673  60.03262  60.02216    688.416767
 INFORMATION **** CHKGRP **** SPGR WITH NO INVERSION

 NUMBER OF IRREDUCIBLE ATOMS IN THE CELL:   54

 CARTESIAN COORDINATES (ANGSTROM) - IRREDUCIBLE ATOMS AND SYMMETRY RELATED

 AT.IRR.  AT  AT.N.          X                   Y                   Z
     1     1    20    1.114862934000E-02 -4.104837067300E-02 -2.350865122000E-03
     2     2    20    2.377609408613E+00  2.320286831454E+00 -4.131135430000E-02
     3     3    20   -2.340709532719E+00 -2.342183251710E+00 -3.893021299400E-02
     4     4    20    2.362082687135E+00 -5.543821168400E-02  2.347901576109E+00
     5     5    20    4.726263422696E+00  2.287519750410E+00  2.334358479752E+00
     6     6    20    4.484233135200E-02 -2.371805870618E+00  2.363666156015E+00
     7     7    20   -2.339670239918E+00 -4.792202398000E-02 -2.331939038585E+00
     8     8    20    2.217208889000E-02  2.334219151553E+00 -2.365857697894E+00
     9     9    12   -4.646249612692E+00 -2.348860186218E+00 -2.318592294635E+00
    10    10    20   -2.306225266500E-02  2.361611791149E+00  2.370170755770E+00
    11    11    20    2.337035953798E+00  4.698598428864E+00  2.336405109269E+00
    12    12    20   -2.393240064660E+00  1.989065999300E-02  2.391326938453E+00
    13    13    20    2.341560106133E+00  2.363595714770E+00  4.746658904103E+00
    14    14    12    4.636182935966E+00  4.667620542431E+00  4.732311234846E+00
    15    15    20   -1.637424093700E-02 -1.497552950200E-02  4.711288443116E+00
    16    16    20   -2.391859501464E+00  2.360006380537E+00  1.634370920200E-02
    17    17    20   -1.209213666300E-02  4.723445698652E+00 -8.944083148000E-03
    18    18    12   -4.696367841019E+00 -3.732441609500E-02  1.632262719800E-02
    19    19    12    5.911200200000E-05 -2.315293451053E+00 -2.373117472273E+00
    20    20    20    2.345536248061E+00 -8.605799814000E-03 -2.354243734507E+00
    21    21    12   -2.360784626073E+00 -4.536380038334E+00 -2.356351152060E+00
    22    22    12    2.364171530806E+00 -2.335414156106E+00 -3.638859189700E-02
    23    23    12    4.566350015588E+00 -4.145109068600E-02 -7.073648540100E-02
    24    24    20    2.163715167600E-02 -4.677231838164E+00  2.432166729000E-03
    25    25    20   -2.367887984288E+00 -2.320677807361E+00 -4.663218601290E+00
    26    26    12    5.313856634900E-02  9.280085589000E-03 -4.712865056188E+00
    27    27    12   -4.703061706145E+00 -4.640460580063E+00 -4.722717442101E+00
    28    28     8    8.591076590000E-04 -1.138724532880E-01 -2.405681318416E+00
    29    29     8    2.434418595020E+00  2.437410014456E+00 -2.393710101924E+00
    30    30     8   -2.354518285037E+00 -2.419325191365E+00 -2.336934679935E+00
    31    31     8    2.413575582152E+00 -9.796221795200E-02  2.856013991000E-03
    32    32     8    4.684412923364E+00  2.232717725054E+00 -1.008392193210E-01
    33    33     8    9.791009073400E-02 -2.321740593153E+00  1.106642290100E-02
    34    34     8    4.736591442819E+00 -1.195143665300E-02  2.262152257433E+00
    35    35     8    7.120021665936E+00  2.197608643162E+00  2.350135279870E+00
    36    36     8    2.352797201318E+00 -2.435750882776E+00  2.356692391582E+00
    37    37     8   -4.857609290000E-04  2.333145286868E+00 -5.644528142000E-03
    38    38     8    2.345412473726E+00  4.737097254794E+00 -8.496651871700E-02
    39    39     8   -2.419306648756E+00  3.076421989000E-03  5.766081791000E-03
    40    40     8    2.340927318395E+00  2.322434404208E+00  2.334984499740E+00
    41    41     8    4.686914334414E+00  4.651771076225E+00  2.366307305081E+00
    42    42     8   -5.687410059000E-03  1.518016078000E-03  2.364665402525E+00
    43    43     8    4.691413248086E+00  2.401444562827E+00  4.685321595356E+00
    44    44     8    7.030733810770E+00  4.638683722195E+00  4.684330361310E+00
    45    45     8    2.355877739167E+00 -1.041734582430E-01  4.775942130754E+00
    46    46     8    8.126330278000E-03  4.772293598762E+00  2.423602362631E+00
    47    47     8    2.252103555584E+00  7.080121755616E+00  2.219260880366E+00
    48    48     8   -2.413902512363E+00  2.327663215561E+00  2.435015809332E+00
    49    49     8    2.375075102048E+00  4.659348901393E+00  4.699795263595E+00
    50    50     8    4.678192921774E+00  6.944521407399E+00  4.781978513263E+00
    51    51     8   -7.329468575400E-02  2.472056983190E+00  4.664410806966E+00
    52    52     8    4.577574315264E+00  4.761023783339E+00  6.889148304171E+00
    53    53     8    7.128089250921E+00  6.987879855501E+00  7.018553097050E+00
    54    54     8    2.360923942319E+00  2.387101075664E+00  7.113587222895E+00

 SYMMETRY CHANGED DURING OLD RUN :  INFORMATION ON SPACE GROUP LOST 
 NUMBER OF SYMMETRY OPERATORS         :    1
 *******************************************************************************
 LATTICE PARAMETERS (ANGSTROMS AND DEGREES) - BOHR = 0.5291772083 ANGSTROM
 PRIMITIVE CELL - CENTRING CODE 1/0 VOLUME=   688.416767 - DENSITY  3.297 g/cm^3
         A              B              C           ALPHA      BETA       GAMMA 
     9.89253722     9.93484099     9.90965541    59.896727  60.032620  60.022157
 *******************************************************************************
 ATOMS IN THE ASYMMETRIC UNIT   54 - ATOMS IN THE UNIT CELL:   54
     ATOM                 X/A                 Y/B                 Z/C    
 *******************************************************************************
      1 T  20 CA   -3.898649529863E-03  3.556693785867E-03 -1.968367824365E-03
      2 T  20 CA   -6.294925882377E-03  1.597048902722E-04  3.382859720418E-01
      3 T  20 CA   -3.639627005785E-03 -1.689450521082E-03 -3.314854743208E-01
      4 T  20 CA   -4.226109285734E-03  3.389222137907E-01 -3.161912993264E-03
      5 T  20 CA   -5.956391209571E-03  3.384862458924E-01  3.338016481304E-01
      6 T  20 CA   -3.777678429901E-03  3.409505189584E-01 -3.350363143671E-01
      7 T  20 CA   -3.622276373944E-03 -3.288100163427E-01 -3.761330288784E-03
      8 T  20 CA   -3.840554179614E-03 -3.336622459745E-01  3.372893250369E-01
      9 T  12 MG   -3.002269377611E-03 -3.272990005329E-01 -3.336004868747E-01
     10 T  20 CA    3.401406794945E-01 -1.547578025388E-03 -2.287279781744E-03
     11 T  20 CA    3.368273151600E-01 -3.287093539249E-03  3.354031057087E-01
     12 T  20 CA    3.429311532602E-01 -1.083691780909E-03 -3.401341665546E-01
     13 T  20 CA    3.418865304422E-01  3.354888026898E-01 -3.208960192565E-03
     14 T  12 MG    3.422672473078E-01  3.328368645034E-01  3.260691492346E-01
     15 T  20 CA    3.371251563288E-01  3.354290113299E-01 -3.387763645817E-01
     16 T  20 CA    3.403403333386E-01 -3.372936467144E-01 -3.255144654994E-03
     17 T  20 CA    3.381250198240E-01 -3.389222052622E-01  3.371221035864E-01
     18 T  12 MG    3.329608638032E-01 -3.297016069066E-01 -3.388759638926E-01
     19 T  12 MG   -3.353997532350E-01 -3.604752977177E-03  4.164730355630E-03
     20 T  20 CA   -3.360737059935E-01 -4.693858520703E-04  3.348879371596E-01
     21 T  12 MG   -3.249581665227E-01 -1.140831390512E-02 -3.240870221151E-01
     22 T  12 MG   -3.380431458312E-01  3.321429687944E-01  4.468070034660E-03
     23 T  12 MG   -3.332293244737E-01  3.222201733796E-01  3.278611516638E-01
     24 T  20 CA   -3.359646069579E-01  3.358349671205E-01 -3.326754210364E-01
     25 T  20 CA   -3.309722355191E-01 -3.344821450191E-01 -1.564469401604E-03
     26 T  12 MG   -3.402636412899E-01 -3.325234717588E-01  3.411050298685E-01
     27 T  12 MG   -3.348750467739E-01 -3.388434893215E-01 -3.295859162354E-01
     28 T   8 O    -1.803019992257E-01 -1.631288555045E-01  1.637721840524E-01
     29 T   8 O    -1.702450244001E-01 -1.717025601094E-01 -4.812588224972E-01
     30 T   8 O    -1.725665545676E-01 -1.608155167868E-01 -1.738280558768E-01
     31 T   8 O    -1.786923390195E-01  1.786106990871E-01  1.649868526182E-01
     32 T   8 O    -1.811024749628E-01  1.660023633339E-01 -4.991459172802E-01
     33 T   8 O    -1.722728574609E-01  1.735986114575E-01 -1.596229081960E-01
     34 T   8 O    -1.763558350601E-01  4.983436385445E-01  1.754693677226E-01
     35 T   8 O    -1.817371222004E-01 -4.839654268903E-01  4.970267519218E-01
     36 T   8 O    -1.732176641454E-01 -4.910699515602E-01 -1.744529107512E-01
     37 T   8 O     1.665382746779E-01 -1.671082355704E-01  1.670004904176E-01
     38 T   8 O     1.657677773696E-01 -1.778843546695E-01 -4.882853405228E-01
     39 T   8 O     1.729293914510E-01 -1.716253659352E-01 -1.727883015157E-01
     40 T   8 O     1.664636303903E-01  1.666329570185E-01  1.660778803633E-01
     41 T   8 O     1.682641865175E-01  1.690731488893E-01  4.975657762662E-01
     42 T   8 O     1.696741526932E-01  1.678911486583E-01 -1.692110668374E-01
     43 T   8 O     1.728557471622E-01  4.953005104381E-01  1.715168943459E-01
     44 T   8 O     1.662309997854E-01 -4.984549134337E-01  4.982599140084E-01
     45 T   8 O     1.664235598163E-01 -4.851201100211E-01 -1.805260012633E-01
     46 T   8 O    -4.858039240152E-01 -1.677380749422E-01  1.682905598762E-01
     47 T   8 O    -4.951358189415E-01 -1.877892186639E-01 -4.922011000380E-01
     48 T   8 O    -4.873795910345E-01 -1.642989534823E-01 -1.799092140269E-01
     49 T   8 O    -4.996202625259E-01  1.705309346019E-01  1.664910407702E-01
     50 T   8 O    -4.942876760532E-01  1.767036512140E-01  4.881333345560E-01
     51 T   8 O    -4.842584051146E-01  1.503832034731E-01 -1.618660693252E-01
     52 T   8 O    -4.925838108214E-01  4.756048192961E-01  1.744906915071E-01
     53 T   8 O     4.943360488351E-01 -4.931237378943E-01 -4.937554942589E-01
     54 T   8 O    -4.884886002371E-01 -4.962504812535E-01 -1.692241637397E-01

 T = ATOM BELONGING TO THE ASYMMETRIC UNIT
 *******************************************************************************
 * GEOMETRY EDITING - INPUT COORDINATES ARE GIVEN IN ANGSTROM         
 *******************************************************************************

 GCALCO - MAX INDICES DIRECT LATTICE VECTOR    15    14    15
 NO.OF VECTORS CREATED 6999 STARS 3500 RMAX   198.34980 BOHR

 GEOMETRY FOR WAVE FUNCTION - DIMENSIONALITY OF THE SYSTEM    3
 (NON PERIODIC DIRECTION: LATTICE PARAMETER FORMALLY SET TO 500)
 *******************************************************************************
 LATTICE PARAMETERS (ANGSTROMS AND DEGREES) - BOHR = 0.5291772083 ANGSTROM
 PRIMITIVE CELL - CENTRING CODE 1/0 VOLUME=   688.416767 - DENSITY  3.297 g/cm^3
         A              B              C           ALPHA      BETA       GAMMA 
     9.89253722     9.93484099     9.90965541    59.896727  60.032620  60.022157
 *******************************************************************************
 ATOMS IN THE ASYMMETRIC UNIT   54 - ATOMS IN THE UNIT CELL:   54
     ATOM                 X/A                 Y/B                 Z/C    
 *******************************************************************************
      1 T  20 CA   -3.898649529863E-03  3.556693785867E-03 -1.968367824365E-03
      2 T  20 CA   -6.294925882377E-03  1.597048902721E-04  3.382859720418E-01
      3 T  20 CA   -3.639627005786E-03 -1.689450521082E-03 -3.314854743208E-01
      4 T  20 CA   -4.226109285734E-03  3.389222137907E-01 -3.161912993264E-03
      5 T  20 CA   -5.956391209571E-03  3.384862458924E-01  3.338016481304E-01
      6 T  20 CA   -3.777678429901E-03  3.409505189584E-01 -3.350363143671E-01
      7 T  20 CA   -3.622276373944E-03 -3.288100163427E-01 -3.761330288784E-03
      8 T  20 CA   -3.840554179614E-03 -3.336622459745E-01  3.372893250369E-01
      9 T  12 MG   -3.002269377611E-03 -3.272990005329E-01 -3.336004868747E-01
     10 T  20 CA    3.401406794945E-01 -1.547578025388E-03 -2.287279781745E-03
     11 T  20 CA    3.368273151600E-01 -3.287093539249E-03  3.354031057087E-01
     12 T  20 CA    3.429311532602E-01 -1.083691780909E-03 -3.401341665546E-01
     13 T  20 CA    3.418865304422E-01  3.354888026898E-01 -3.208960192565E-03
     14 T  12 MG    3.422672473078E-01  3.328368645034E-01  3.260691492346E-01
     15 T  20 CA    3.371251563288E-01  3.354290113299E-01 -3.387763645817E-01
     16 T  20 CA    3.403403333386E-01 -3.372936467144E-01 -3.255144654994E-03
     17 T  20 CA    3.381250198240E-01 -3.389222052622E-01  3.371221035864E-01
     18 T  12 MG    3.329608638032E-01 -3.297016069066E-01 -3.388759638926E-01
     19 T  12 MG   -3.353997532350E-01 -3.604752977178E-03  4.164730355630E-03
     20 T  20 CA   -3.360737059935E-01 -4.693858520705E-04  3.348879371596E-01
     21 T  12 MG   -3.249581665227E-01 -1.140831390512E-02 -3.240870221151E-01
     22 T  12 MG   -3.380431458312E-01  3.321429687944E-01  4.468070034660E-03
     23 T  12 MG   -3.332293244737E-01  3.222201733796E-01  3.278611516638E-01
     24 T  20 CA   -3.359646069579E-01  3.358349671205E-01 -3.326754210364E-01
     25 T  20 CA   -3.309722355191E-01 -3.344821450191E-01 -1.564469401604E-03
     26 T  12 MG   -3.402636412899E-01 -3.325234717588E-01  3.411050298685E-01
     27 T  12 MG   -3.348750467739E-01 -3.388434893215E-01 -3.295859162354E-01
     28 T   8 O    -1.803019992257E-01 -1.631288555045E-01  1.637721840524E-01
     29 T   8 O    -1.702450244001E-01 -1.717025601094E-01 -4.812588224972E-01
     30 T   8 O    -1.725665545676E-01 -1.608155167868E-01 -1.738280558768E-01
     31 T   8 O    -1.786923390195E-01  1.786106990871E-01  1.649868526182E-01
     32 T   8 O    -1.811024749628E-01  1.660023633339E-01 -4.991459172802E-01
     33 T   8 O    -1.722728574609E-01  1.735986114575E-01 -1.596229081960E-01
     34 T   8 O    -1.763558350601E-01  4.983436385445E-01  1.754693677226E-01
     35 T   8 O    -1.817371222004E-01 -4.839654268903E-01  4.970267519218E-01
     36 T   8 O    -1.732176641454E-01 -4.910699515602E-01 -1.744529107512E-01
     37 T   8 O     1.665382746779E-01 -1.671082355704E-01  1.670004904176E-01
     38 T   8 O     1.657677773696E-01 -1.778843546695E-01 -4.882853405228E-01
     39 T   8 O     1.729293914510E-01 -1.716253659352E-01 -1.727883015157E-01
     40 T   8 O     1.664636303903E-01  1.666329570185E-01  1.660778803633E-01
     41 T   8 O     1.682641865175E-01  1.690731488893E-01  4.975657762662E-01
     42 T   8 O     1.696741526932E-01  1.678911486583E-01 -1.692110668374E-01
     43 T   8 O     1.728557471622E-01  4.953005104381E-01  1.715168943459E-01
     44 T   8 O     1.662309997854E-01 -4.984549134337E-01  4.982599140084E-01
     45 T   8 O     1.664235598163E-01 -4.851201100211E-01 -1.805260012633E-01
     46 T   8 O    -4.858039240152E-01 -1.677380749422E-01  1.682905598762E-01
     47 T   8 O    -4.951358189415E-01 -1.877892186639E-01 -4.922011000380E-01
     48 T   8 O    -4.873795910345E-01 -1.642989534823E-01 -1.799092140269E-01
     49 T   8 O    -4.996202625259E-01  1.705309346019E-01  1.664910407702E-01
     50 T   8 O    -4.942876760532E-01  1.767036512140E-01  4.881333345560E-01
     51 T   8 O    -4.842584051146E-01  1.503832034731E-01 -1.618660693252E-01
     52 T   8 O    -4.925838108214E-01  4.756048192961E-01  1.744906915071E-01
     53 T   8 O     4.943360488351E-01 -4.931237378943E-01 -4.937554942589E-01
     54 T   8 O    -4.884886002371E-01 -4.962504812535E-01 -1.692241637397E-01

 T = ATOM BELONGING TO THE ASYMMETRIC UNIT

 ****    1 SYMMOPS - TRANSLATORS IN FRACTIONAL UNITS
 **** MATRICES AND TRANSLATORS IN THE CRYSTALLOGRAPHIC REFERENCE FRAME
   V INV                    ROTATION MATRICES                   TRANSLATORS
   1   1  1.00  0.00  0.00  0.00  1.00  0.00  0.00  0.00  1.00  0.00  0.00  0.00

 DIRECT LATTICE VECTORS CARTESIAN COMPONENTS (ANGSTROM)
          X                    Y                    Z
   0.114478814843E-01   0.698999105247E+01   0.700015619286E+01
   0.703507865246E+01  -0.112092017107E-01   0.701488475925E+01
   0.702529259895E+01   0.698902790128E+01   0.482963774261E-02


 CARTESIAN COORDINATES - PRIMITIVE CELL
 *******************************************************************************
 *      ATOM          X(ANGSTROM)         Y(ANGSTROM)         Z(ANGSTROM)
 *******************************************************************************
    1    20 CA    1.114862934000E-02 -4.104837067300E-02 -2.350865122000E-03
    2    20 CA    2.377609408613E+00  2.320286831454E+00 -4.131135430000E-02
    3    20 CA   -2.340709532719E+00 -2.342183251710E+00 -3.893021299400E-02
    4    20 CA    2.362082687135E+00 -5.543821168400E-02  2.347901576109E+00
    5    20 CA    4.726263422696E+00  2.287519750410E+00  2.334358479752E+00
    6    20 CA    4.484233135200E-02 -2.371805870618E+00  2.363666156015E+00
    7    20 CA   -2.339670239918E+00 -4.792202398000E-02 -2.331939038585E+00
    8    20 CA    2.217208889000E-02  2.334219151553E+00 -2.365857697894E+00
    9    12 MG   -4.646249612692E+00 -2.348860186218E+00 -2.318592294635E+00
   10    20 CA   -2.306225266500E-02  2.361611791149E+00  2.370170755770E+00
   11    20 CA    2.337035953798E+00  4.698598428864E+00  2.336405109269E+00
   12    20 CA   -2.393240064660E+00  1.989065999300E-02  2.391326938453E+00
   13    20 CA    2.341560106133E+00  2.363595714770E+00  4.746658904103E+00
   14    12 MG    4.636182935966E+00  4.667620542431E+00  4.732311234846E+00
   15    20 CA   -1.637424093700E-02 -1.497552950200E-02  4.711288443116E+00
   16    20 CA   -2.391859501464E+00  2.360006380537E+00  1.634370920200E-02
   17    20 CA   -1.209213666300E-02  4.723445698652E+00 -8.944083148000E-03
   18    12 MG   -4.696367841019E+00 -3.732441609500E-02  1.632262719800E-02
   19    12 MG    5.911200199990E-05 -2.315293451053E+00 -2.373117472273E+00
   20    20 CA    2.345536248061E+00 -8.605799814000E-03 -2.354243734507E+00
   21    12 MG   -2.360784626073E+00 -4.536380038334E+00 -2.356351152060E+00
   22    12 MG    2.364171530806E+00 -2.335414156106E+00 -3.638859189700E-02
   23    12 MG    4.566350015588E+00 -4.145109068600E-02 -7.073648540100E-02
   24    20 CA    2.163715167600E-02 -4.677231838164E+00  2.432166729000E-03
   25    20 CA   -2.367887984288E+00 -2.320677807361E+00 -4.663218601290E+00
   26    12 MG    5.313856634900E-02  9.280085589000E-03 -4.712865056188E+00
   27    12 MG   -4.703061706145E+00 -4.640460580063E+00 -4.722717442101E+00
   28     8 O     8.591076589998E-04 -1.138724532880E-01 -2.405681318416E+00
   29     8 O     2.434418595020E+00  2.437410014456E+00 -2.393710101924E+00
   30     8 O    -2.354518285037E+00 -2.419325191365E+00 -2.336934679935E+00
   31     8 O     2.413575582152E+00 -9.796221795200E-02  2.856013991000E-03
   32     8 O     4.684412923364E+00  2.232717725054E+00 -1.008392193210E-01
   33     8 O     9.791009073400E-02 -2.321740593153E+00  1.106642290100E-02
   34     8 O     4.736591442819E+00 -1.195143665300E-02  2.262152257433E+00
   35     8 O     7.120021665936E+00  2.197608643162E+00  2.350135279870E+00
   36     8 O     2.352797201318E+00 -2.435750882776E+00  2.356692391582E+00
   37     8 O    -4.857609290002E-04  2.333145286868E+00 -5.644528142000E-03
   38     8 O     2.345412473726E+00  4.737097254794E+00 -8.496651871700E-02
   39     8 O    -2.419306648756E+00  3.076421989000E-03  5.766081791000E-03
   40     8 O     2.340927318395E+00  2.322434404208E+00  2.334984499740E+00
   41     8 O     4.686914334414E+00  4.651771076225E+00  2.366307305081E+00
   42     8 O    -5.687410059000E-03  1.518016078000E-03  2.364665402525E+00
   43     8 O     4.691413248086E+00  2.401444562827E+00  4.685321595356E+00
   44     8 O     7.030733810770E+00  4.638683722195E+00  4.684330361310E+00
   45     8 O     2.355877739167E+00 -1.041734582430E-01  4.775942130754E+00
   46     8 O     8.126330278000E-03  4.772293598762E+00  2.423602362631E+00
   47     8 O     2.252103555584E+00  7.080121755616E+00  2.219260880366E+00
   48     8 O    -2.413902512363E+00  2.327663215561E+00  2.435015809332E+00
   49     8 O     2.375075102048E+00  4.659348901393E+00  4.699795263595E+00
   50     8 O     4.678192921774E+00  6.944521407399E+00  4.781978513263E+00
   51     8 O    -7.329468575400E-02  2.472056983190E+00  4.664410806966E+00
   52     8 O     4.577574315264E+00  4.761023783339E+00  6.889148304171E+00
   53     8 O     7.128089250921E+00  6.987879855501E+00  7.018553097050E+00
   54     8 O     2.360923942319E+00  2.387101075664E+00  7.113587222895E+00
 WARNING **** CRYSTA **** TESTGEOM  DIRECTIVE - GEOMETRY EDITING COMPLETE
 TTTTTTTTTTTTTTTTTTTTTTTTTTTTTT END         TELAPSE        0.01 TCPU        0.01
 EEEEEEEEEE TERMINATION  DATE 10 03 2023 TIME 10:29:00.3
Fri 10 Mar 2023 10:29:00 GMT
Contents of temporary directory:
total 8
-rw-r--r--  1 brunocamino  admin  4027 10 Mar 10:29 fort.34
SCF abnormal end - no wf written in fort.9
geometry input file fort.34 saved as /Users/brunocamino/Desktop/Imperial/cmsg_icl/solid-solutions/./data/crystal/testgeom_opt/CaMgO_testgeom_917.gui
temporary directory /Users/brunocamino/crystal/tmp removed
