date Fri 10 Mar 2023 10:30:37 GMT
hostname MacBook-Pro-8
system Darwin MacBook-Pro-8 21.6.0 Darwin Kernel Version 21.6.0: Mon Aug 22 20:20:05 PDT 2022; root:xnu-8020.140.49~2/RELEASE_ARM64_T8101 arm64
user brunocamino
output data in /Users/brunocamino/Desktop/Imperial/cmsg_icl/solid-solutions/./data/crystal/testgeom_opt/CaMgO_testgeom_2122.out
crystal executable in /Users/brunocamino/crystal
input data in /Users/brunocamino/Desktop/Imperial/cmsg_icl/solid-solutions/./data/crystal/testgeom_opt/CaMgO_testgeom_2122.d12
temporary directory /Users/brunocamino/crystal/tmp
external geometry input from /Users/brunocamino/Desktop/Imperial/cmsg_icl/solid-solutions/./data/crystal/testgeom_opt/CaMgO_testgeom_2122.gui
external geometry input saved in /Users/brunocamino/Desktop/Imperial/cmsg_icl/solid-solutions/./data/crystal/testgeom_opt/CaMgO_testgeom_2122_inp.gui
Bulk 
EXTERNAL
EXTPRT
TESTGEOM
END

         
 *******************************************************************************
 *                                                                             *
 *                               CRYSTAL17                                     *
 *                      public : 1.0.1 - Feb 1st, 2017                         *
 *                       HTTP://WWW.CRYSTAL.UNITO.IT                           *
 *                                                                             *
 *                              MAIN AUTHORS                                   *
 *                                                                             *
 *  R. DOVESI(1,11), V.R. SAUNDERS(2), C. ROETTI(1,11), R. ORLANDO(1,11),      *
 *  C.M. ZICOVICH-WILSON(1,3), F. PASCALE(4), B. CIVALLERI(1,11),              *
 *  K. DOLL(5), N.M. HARRISON(2,6), I.J. BUSH(7), Ph. D'ARCO(8),               *
 *  M. LLUNELL(9), M. CAUSA'(10), Y. NOEL(8), L. MASCHIO(1,11), A. ERBA(1,11)  *
 *  M. RE'RAT(14), S. CASASSA(1,11)                                            *
 *                                                                             *
 *        CONTRIBUTIONS TO THE CODE HAVE ALSO BEEN GIVEN BY                    *
 *                                                                             *
 *  M. FERRABONE(1,11), M. DE LA PIERRE(1,11), M. FERRERO(1,11),               *
 *  J. BAIMA(1,11), E. ALBANESE(1,11), M.F. PEINTINGER(12), R. BAST(13),       *
 *  B. KIRTMAN(15), V. LACIVITA(1,11), R. DEMICHELIS(1,16)                     *
 *  G. BRANDEBURG(17), S. SALUSTRO(1,11), G. SANSONE(1,11)                     *
 *  M.T. RUGGIERO(18)                                                          *
 *                                                                             *
 * (1) THEORETICAL CHEMISTRY GROUP - UNIVERSITA' DI TORINO - TORINO (ITALY)    *

 * (2) COMPUTATIONAL SCIENCE & ENGINEERING DEPARTMENT - STFC DARESBURY (UK)    *
 * (3) UNIVERSIDAD AUTONOMA DEL ESTADO DE MORELOS - CUERNAVACA (MEXICO)        *
 * (4) UNIVERSITE' DE LORRAINE - NANCY (FRANCE)                                *
 * (5) UNIVERSITAET STUTTGART- STUTTGART (GERMANY)                             *
 * (6) IMPERIAL COLLEGE - LONDON (UK)                                          *
 * (7) OXFORD E-RESEARCH CENTRE - OXFORD (UK)                                  *
 * (8) UPMC - SORBONNE UNIVERSITES - PARIS (FRANCE)                            *
 * (9) UNIVERSIDAD DE BARCELONA - BARCELONA (SPAIN)                            *
 *(10) UNIVERSITA' DI NAPOLI "FEDERICO II" - NAPOLI (ITALY)                    *
 *(11) NIS - NANOSTRUCTURED INTERFACES AND SURFACES - TORINO (ITALY)           *
 *(12) MPI FUER CHEMISCHE ENERGIEKONVERSION - MUELHEIM AN DER RUHR (GERMANY)   *
 *(13) UNIVERSITY OF TROMSO - TROMSO (NORWAY)                                  *
 *(14) UNIVERSITE' DE PAU ET DES PAYS DE L'ADOUR - PAU (FRANCE)                *
 *(15) UNIVERSITY OF CALIFORNIA SANTA BARBARA - SANTA BARBARA (USA)            *
 *(16) CURTIN UNIVERSITY - PERTH (AUSTRALIA)                                   *
 *(17) UNIVERSITY COLLEGE LONDON - LONDON (UK)                                 *
 *(18) CAMBRIDGE UNIVERSITY - CAMBRIDGE (UK)                                   *
 *                                                                             *
 *******************************************************************************
 EEEEEEEEEE STARTING  DATE 10 03 2023 TIME 10:30:37.5
 Bulk                                                                            

 GEOMETRY INPUT FROM EXTERNAL FILE (FORTRAN UNIT 34)
 3D - CRYSTAL 

 *******************************************************************************
 LATTICE PARAMETERS  (ANGSTROMS AND DEGREES) - PRIMITIVE CELL
       A          B          C        ALPHA      BETA     GAMMA        VOLUME
    9.90881    9.90317    9.88102    60.09313  60.12406  59.83077    685.856212
 INFORMATION **** CHKGRP **** SPGR WITH NO INVERSION

 NUMBER OF IRREDUCIBLE ATOMS IN THE CELL:   54

 CARTESIAN COORDINATES (ANGSTROM) - IRREDUCIBLE ATOMS AND SYMMETRY RELATED

 AT.IRR.  AT  AT.N.          X                   Y                   Z
     1     1    20   -3.709352869800E-02 -9.591994865000E-03 -3.246939215800E-02
     2     2    20    2.352296101649E+00  2.348106433731E+00 -3.635734902500E-02
     3     3    20   -2.326591110665E+00 -2.304198623676E+00 -1.889780223900E-02
     4     4    20    2.345245191212E+00 -6.071569325400E-02  2.329729610660E+00
     5     5    20    4.681948088151E+00  2.301206245460E+00  2.333339488902E+00
     6     6    20    4.340132406300E-02 -2.318303220414E+00  2.345474676663E+00
     7     7    20   -2.342997165472E+00 -6.033311541200E-02 -2.357005170315E+00
     8     8    20    9.128483425000E-03  2.318008677322E+00 -2.346379119895E+00
     9     9    12   -4.634600451990E+00 -2.338326544612E+00 -2.262794011030E+00
    10    10    20   -7.571371890100E-02  2.359983277905E+00  2.356122263662E+00
    11    11    20    2.303248757926E+00  4.718281379415E+00  2.315393622218E+00
    12    12    12   -2.348480399854E+00  6.399965850600E-02  2.351241925069E+00
    13    13    20    2.326066967019E+00  2.333703747852E+00  4.721716594416E+00
    14    14    20    4.635380298044E+00  4.652098406556E+00  4.678706380022E+00
    15    15    20   -1.472523577000E-03  1.949841861600E-02  4.693050892209E+00
    16    16    12   -2.400939039561E+00  2.318157388991E+00  9.336309567400E-02
    17    17    20   -1.849792878600E-02  4.675316232114E+00  2.547147957700E-02
    18    18    12   -4.610067417996E+00 -1.834076762300E-02  6.108609482800E-02
    19    19    12    1.185316501500E-02 -2.334245670799E+00 -2.369674398033E+00
    20    20    20    2.337192658297E+00 -5.447439068000E-03 -2.336804569440E+00
    21    21    12   -2.337177913783E+00 -4.566897977870E+00 -2.409740170286E+00
    22    22    12    2.315428313590E+00 -2.334235234016E+00 -5.035025677000E-03
    23    23    20    4.682612797437E+00 -1.930060052200E-02  1.647631394900E-02
    24    24    20    4.128621551800E-02 -4.652551265896E+00 -2.308066630600E-02
    25    25    12   -2.350339000551E+00 -2.343624585979E+00 -4.648003123210E+00
    26    26    12   -3.803703474200E-02 -6.588151114300E-02 -4.623253500390E+00
    27    27    20   -4.617775358012E+00 -4.659658708978E+00 -4.714009010717E+00
    28    28     8   -3.436919337000E-03 -1.109235253470E-01 -2.447910213444E+00
    29    29     8    2.428430224563E+00  2.449070509612E+00 -2.335482573288E+00
    30    30     8   -2.339538591654E+00 -2.434850001847E+00 -2.424093012181E+00
    31    31     8    2.333709907014E+00 -9.067400381100E-02 -4.122357634000E-03
    32    32     8    4.670229612713E+00  2.327088457335E+00 -5.818575100400E-02
    33    33     8    1.039867220090E-01 -2.328514748656E+00 -5.815580485300E-02
    34    34     8    4.748162591487E+00 -9.103061275400E-02  2.334230722470E+00
    35    35     8    6.982163789990E+00  2.236225556466E+00  2.342968293502E+00
    36    36     8    2.424424477618E+00 -2.328983398863E+00  2.334910324041E+00
    37    37     8   -7.757749479800E-02  2.328509146339E+00  3.903373605000E-03
    38    38     8    2.338307923752E+00  4.741242265829E+00 -8.572552787800E-02
    39    39     8   -2.437990307557E+00  9.171554961900E-02  2.935806843900E-02
    40    40     8    2.331169766561E+00  2.326004082791E+00  2.325349175094E+00
    41    41     8    4.669606751386E+00  4.740658303981E+00  2.338175200565E+00
    42    42     8   -1.010830250850E-01  4.402686820000E-03  2.332087254207E+00
    43    43     8    4.659465532472E+00  2.318934585886E+00  4.733055498389E+00
    44    44     8    7.061921136679E+00  4.653159893153E+00  4.688200345204E+00
    45    45     8    2.321342674568E+00 -1.038247616020E-01  4.738032347167E+00
    46    46     8   -9.708520572000E-02  4.763277688123E+00  2.375197317525E+00
    47    47     8    2.390414871756E+00  6.983690559333E+00  2.317649044393E+00
    48    48     8   -2.333008378255E+00  2.314570968690E+00  2.336970571430E+00
    49    49     8    2.239094740742E+00  4.646320781816E+00  4.695647512998E+00
    50    50     8    4.660280913224E+00  7.067765392615E+00  4.647570807667E+00
    51    51     8   -9.477637676200E-02  2.438322395719E+00  4.664101677469E+00
    52    52     8    4.525327239372E+00  4.558005535780E+00  7.097373850023E+00
    53    53     8    7.110244494368E+00  6.991328475004E+00  7.119503864034E+00
    54    54     8    2.431386810396E+00  2.347184266628E+00  7.017700897232E+00

 SYMMETRY CHANGED DURING OLD RUN :  INFORMATION ON SPACE GROUP LOST 
 NUMBER OF SYMMETRY OPERATORS         :    1
 *******************************************************************************
 LATTICE PARAMETERS (ANGSTROMS AND DEGREES) - BOHR = 0.5291772083 ANGSTROM
 PRIMITIVE CELL - CENTRING CODE 1/0 VOLUME=   685.856212 - DENSITY  3.310 g/cm^3
         A              B              C           ALPHA      BETA       GAMMA 
     9.90881004     9.90316794     9.88102337    60.093127  60.124060  59.830769
 *******************************************************************************
 ATOMS IN THE ASYMMETRIC UNIT   54 - ATOMS IN THE UNIT CELL:   54
     ATOM                 X/A                 Y/B                 Z/C    
 *******************************************************************************
      1 T  20 CA   -3.449438976189E-04 -4.280077477253E-03 -1.029834229380E-03
      2 T  20 CA   -2.621870227895E-03 -2.399126920611E-03  3.388805267734E-01
      3 T  20 CA   -2.609243149916E-06 -2.840614946842E-03 -3.299684512695E-01
      4 T  20 CA   -6.262614478168E-03  3.381039398083E-01 -2.320766367440E-03
      5 T  20 CA   -3.937693210315E-03  3.364456355091E-01  3.335888154774E-01
      6 T  20 CA   -2.232810355189E-03  3.361634230056E-01 -3.296487562228E-01
      7 T  20 CA   -4.504646173557E-03 -3.312164489558E-01 -4.238290058201E-03
      8 T  20 CA   -1.607510207842E-03 -3.324472343005E-01  3.334502733864E-01
      9 T  12 MG    2.913900106236E-03 -3.253748028943E-01 -3.378766797838E-01
     10 T  20 CA    3.419745696286E-01 -6.642180548939E-03 -4.213129646849E-03
     11 T  20 CA    3.378652605327E-01 -8.174003014900E-03  3.376154476279E-01
     12 T  12 MG    3.397097974828E-01 -5.220723268934E-03 -3.307403480306E-01
     13 T  20 CA    3.366873738447E-01  3.355958389996E-01 -2.577161938370E-03
     14 T  20 CA    3.345375401970E-01  3.317745344135E-01  3.315757644197E-01
     15 T  20 CA    3.353413003139E-01  3.327083774180E-01 -3.326343960330E-01
     16 T  12 MG    3.442287568457E-01 -3.312005062864E-01 -1.256168198248E-02
     17 T  20 CA    3.378569894076E-01 -3.343361573458E-01  3.313669874933E-01
     18 T  12 MG    3.325655966687E-01 -3.242740650373E-01 -3.354852321242E-01
     19 T  12 MG   -3.365311205561E-01 -7.365699289389E-04  2.449946797741E-03
     20 T  20 CA   -3.336839693112E-01  1.247750685467E-03  3.330947186794E-01
     21 T  12 MG   -3.313132163212E-01 -1.181448434204E-02 -3.224989137328E-01
     22 T  12 MG   -3.329842000826E-01  3.325221999963E-01 -9.912808009132E-04
     23 T  20 CA   -3.349287116043E-01  3.376852932240E-01  3.324635809312E-01
     24 T  20 CA   -3.376860274948E-01  3.345070205426E-01 -3.282779612921E-01
     25 T  12 MG   -3.304190413205E-01 -3.313730560102E-01 -5.114104590728E-03
     26 T  12 MG   -3.308728057466E-01 -3.272437361611E-01  3.215228546426E-01
     27 T  20 CA   -3.388484844335E-01 -3.324871663348E-01 -3.283452514622E-01
     28 T   8 O    -1.818277850816E-01 -1.666271843023E-01  1.659937724923E-01
     29 T   8 O    -1.643838738752E-01 -1.679104306660E-01 -4.848594546185E-01
     30 T   8 O    -1.795244251383E-01 -1.656937363313E-01 -1.691058659657E-01
     31 T   8 O    -1.736013945126E-01  1.732213059079E-01  1.607708196813E-01
     32 T   8 O    -1.713681402801E-01  1.634436959027E-01 -4.952338882335E-01
     33 T   8 O    -1.782768154065E-01  1.700590153567E-01 -1.550195505678E-01
     34 T   8 O    -1.798762904321E-01 -4.874301957696E-01  1.671063928237E-01
     35 T   8 O    -1.723272144065E-01 -4.935909765644E-01  4.928231308787E-01
     36 T   8 O    -1.739474177611E-01 -4.934166869277E-01 -1.593112681860E-01
     37 T   8 O     1.725294044964E-01 -1.720320569909E-01  1.607688105825E-01
     38 T   8 O     1.661994789365E-01 -1.783021217982E-01 -4.873869333993E-01
     39 T   8 O     1.829251963252E-01 -1.789620049463E-01 -1.699526193359E-01
     40 T   8 O     1.653058247095E-01  1.658579411177E-01  1.677454771500E-01
     41 T   8 O     1.719376767571E-01  1.612035997920E-01 -4.931038180243E-01
     42 T   8 O     1.734337235049E-01  1.585271713798E-01 -1.728516980481E-01
     43 T   8 O     1.696423734711E-01 -4.955400626609E-01  1.625019997960E-01
     44 T   8 O     1.618367487230E-01 -4.939603803609E-01 -4.954173231517E-01
     45 T   8 O     1.636741989961E-01 -4.890149740605E-01 -1.784728505475E-01
     46 T   8 O    -4.830803157834E-01 -1.789270000169E-01  1.648480506325E-01
     47 T   8 O     4.939838060247E-01 -1.640139379340E-01 -4.942265147157E-01
     48 T   8 O     4.987151966606E-01 -1.663060399435E-01 -1.675973239506E-01
     49 T   8 O    -4.933815384949E-01  1.618950826336E-01  1.585151045876E-01
     50 T   8 O    -4.965108666577E-01  1.583395987229E-01 -4.915946789939E-01
     51 T   8 O    -4.868761580260E-01  1.507432796177E-01 -1.641914536836E-01
     52 T   8 O    -4.922803189922E-01 -4.971207292522E-01  1.448748567441E-01
     53 T   8 O     4.987312186814E-01 -4.848091353570E-01 -4.976663686037E-01
     54 T   8 O     4.934488971946E-01 -4.943260963789E-01 -1.574434820026E-01

 T = ATOM BELONGING TO THE ASYMMETRIC UNIT
 *******************************************************************************
 * GEOMETRY EDITING - INPUT COORDINATES ARE GIVEN IN ANGSTROM         
 *******************************************************************************

 GCALCO - MAX INDICES DIRECT LATTICE VECTOR    14    14    14
 NO.OF VECTORS CREATED 6999 STARS 3500 RMAX   198.22875 BOHR

 GEOMETRY FOR WAVE FUNCTION - DIMENSIONALITY OF THE SYSTEM    3
 (NON PERIODIC DIRECTION: LATTICE PARAMETER FORMALLY SET TO 500)
 *******************************************************************************
 LATTICE PARAMETERS (ANGSTROMS AND DEGREES) - BOHR = 0.5291772083 ANGSTROM
 PRIMITIVE CELL - CENTRING CODE 1/0 VOLUME=   685.856212 - DENSITY  3.310 g/cm^3
         A              B              C           ALPHA      BETA       GAMMA 
     9.90881004     9.90316794     9.88102337    60.093127  60.124060  59.830769
 *******************************************************************************
 ATOMS IN THE ASYMMETRIC UNIT   54 - ATOMS IN THE UNIT CELL:   54
     ATOM                 X/A                 Y/B                 Z/C    
 *******************************************************************************
      1 T  20 CA   -3.449438976189E-04 -4.280077477253E-03 -1.029834229380E-03
      2 T  20 CA   -2.621870227895E-03 -2.399126920611E-03  3.388805267734E-01
      3 T  20 CA   -2.609243149958E-06 -2.840614946842E-03 -3.299684512695E-01
      4 T  20 CA   -6.262614478168E-03  3.381039398083E-01 -2.320766367440E-03
      5 T  20 CA   -3.937693210315E-03  3.364456355091E-01  3.335888154774E-01
      6 T  20 CA   -2.232810355189E-03  3.361634230056E-01 -3.296487562228E-01
      7 T  20 CA   -4.504646173557E-03 -3.312164489558E-01 -4.238290058201E-03
      8 T  20 CA   -1.607510207842E-03 -3.324472343005E-01  3.334502733864E-01
      9 T  12 MG    2.913900106236E-03 -3.253748028943E-01 -3.378766797838E-01
     10 T  20 CA    3.419745696286E-01 -6.642180548939E-03 -4.213129646849E-03
     11 T  20 CA    3.378652605327E-01 -8.174003014900E-03  3.376154476279E-01
     12 T  12 MG    3.397097974828E-01 -5.220723268934E-03 -3.307403480306E-01
     13 T  20 CA    3.366873738447E-01  3.355958389996E-01 -2.577161938370E-03
     14 T  20 CA    3.345375401970E-01  3.317745344135E-01  3.315757644197E-01
     15 T  20 CA    3.353413003139E-01  3.327083774180E-01 -3.326343960330E-01
     16 T  12 MG    3.442287568457E-01 -3.312005062864E-01 -1.256168198248E-02
     17 T  20 CA    3.378569894076E-01 -3.343361573458E-01  3.313669874933E-01
     18 T  12 MG    3.325655966687E-01 -3.242740650373E-01 -3.354852321242E-01
     19 T  12 MG   -3.365311205561E-01 -7.365699289389E-04  2.449946797741E-03
     20 T  20 CA   -3.336839693112E-01  1.247750685467E-03  3.330947186794E-01
     21 T  12 MG   -3.313132163212E-01 -1.181448434204E-02 -3.224989137328E-01
     22 T  12 MG   -3.329842000826E-01  3.325221999963E-01 -9.912808009131E-04
     23 T  20 CA   -3.349287116043E-01  3.376852932240E-01  3.324635809312E-01
     24 T  20 CA   -3.376860274948E-01  3.345070205426E-01 -3.282779612921E-01
     25 T  12 MG   -3.304190413205E-01 -3.313730560102E-01 -5.114104590728E-03
     26 T  12 MG   -3.308728057466E-01 -3.272437361611E-01  3.215228546426E-01
     27 T  20 CA   -3.388484844335E-01 -3.324871663348E-01 -3.283452514622E-01
     28 T   8 O    -1.818277850816E-01 -1.666271843023E-01  1.659937724923E-01
     29 T   8 O    -1.643838738752E-01 -1.679104306660E-01 -4.848594546185E-01
     30 T   8 O    -1.795244251383E-01 -1.656937363313E-01 -1.691058659657E-01
     31 T   8 O    -1.736013945126E-01  1.732213059079E-01  1.607708196813E-01
     32 T   8 O    -1.713681402801E-01  1.634436959027E-01 -4.952338882335E-01
     33 T   8 O    -1.782768154065E-01  1.700590153567E-01 -1.550195505678E-01
     34 T   8 O    -1.798762904321E-01 -4.874301957696E-01  1.671063928237E-01
     35 T   8 O    -1.723272144065E-01 -4.935909765644E-01  4.928231308787E-01
     36 T   8 O    -1.739474177611E-01 -4.934166869277E-01 -1.593112681860E-01
     37 T   8 O     1.725294044964E-01 -1.720320569909E-01  1.607688105825E-01
     38 T   8 O     1.661994789365E-01 -1.783021217982E-01 -4.873869333993E-01
     39 T   8 O     1.829251963252E-01 -1.789620049463E-01 -1.699526193359E-01
     40 T   8 O     1.653058247095E-01  1.658579411177E-01  1.677454771500E-01
     41 T   8 O     1.719376767571E-01  1.612035997920E-01 -4.931038180243E-01
     42 T   8 O     1.734337235049E-01  1.585271713798E-01 -1.728516980481E-01
     43 T   8 O     1.696423734711E-01 -4.955400626609E-01  1.625019997960E-01
     44 T   8 O     1.618367487230E-01 -4.939603803609E-01 -4.954173231517E-01
     45 T   8 O     1.636741989961E-01 -4.890149740605E-01 -1.784728505475E-01
     46 T   8 O    -4.830803157834E-01 -1.789270000169E-01  1.648480506325E-01
     47 T   8 O     4.939838060247E-01 -1.640139379340E-01 -4.942265147157E-01
     48 T   8 O     4.987151966606E-01 -1.663060399435E-01 -1.675973239506E-01
     49 T   8 O    -4.933815384949E-01  1.618950826336E-01  1.585151045876E-01
     50 T   8 O    -4.965108666577E-01  1.583395987229E-01 -4.915946789939E-01
     51 T   8 O    -4.868761580260E-01  1.507432796177E-01 -1.641914536836E-01
     52 T   8 O    -4.922803189922E-01 -4.971207292522E-01  1.448748567441E-01
     53 T   8 O     4.987312186814E-01 -4.848091353570E-01 -4.976663686037E-01
     54 T   8 O     4.934488971946E-01 -4.943260963789E-01 -1.574434820026E-01

 T = ATOM BELONGING TO THE ASYMMETRIC UNIT

 ****    1 SYMMOPS - TRANSLATORS IN FRACTIONAL UNITS
 **** MATRICES AND TRANSLATORS IN THE CRYSTALLOGRAPHIC REFERENCE FRAME
   V INV                    ROTATION MATRICES                   TRANSLATORS
   1   1  1.00  0.00  0.00  0.00  1.00  0.00  0.00  0.00  1.00  0.00  0.00  0.00

 DIRECT LATTICE VECTORS CARTESIAN COMPONENTS (ANGSTROM)
          X                    Y                    Z
   0.384628659993E-03   0.698703707167E+01   0.702608206362E+01
   0.698445474401E+01  -0.222577257841E-02   0.702069243720E+01
   0.699082277183E+01   0.698305158113E+01  -0.322338207696E-02


 CARTESIAN COORDINATES - PRIMITIVE CELL
 *******************************************************************************
 *      ATOM          X(ANGSTROM)         Y(ANGSTROM)         Z(ANGSTROM)
 *******************************************************************************
    1    20 CA   -3.709352869800E-02 -9.591994865000E-03 -3.246939215800E-02
    2    20 CA    2.352296101649E+00  2.348106433731E+00 -3.635734902500E-02
    3    20 CA   -2.326591110665E+00 -2.304198623676E+00 -1.889780223900E-02
    4    20 CA    2.345245191212E+00 -6.071569325400E-02  2.329729610660E+00
    5    20 CA    4.681948088151E+00  2.301206245460E+00  2.333339488902E+00
    6    20 CA    4.340132406300E-02 -2.318303220414E+00  2.345474676663E+00
    7    20 CA   -2.342997165472E+00 -6.033311541200E-02 -2.357005170315E+00
    8    20 CA    9.128483425000E-03  2.318008677322E+00 -2.346379119895E+00
    9    12 MG   -4.634600451990E+00 -2.338326544612E+00 -2.262794011030E+00
   10    20 CA   -7.571371890100E-02  2.359983277905E+00  2.356122263662E+00
   11    20 CA    2.303248757926E+00  4.718281379415E+00  2.315393622218E+00
   12    12 MG   -2.348480399854E+00  6.399965850600E-02  2.351241925069E+00
   13    20 CA    2.326066967019E+00  2.333703747852E+00  4.721716594416E+00
   14    20 CA    4.635380298044E+00  4.652098406556E+00  4.678706380022E+00
   15    20 CA   -1.472523576999E-03  1.949841861600E-02  4.693050892209E+00
   16    12 MG   -2.400939039561E+00  2.318157388991E+00  9.336309567400E-02
   17    20 CA   -1.849792878600E-02  4.675316232114E+00  2.547147957700E-02
   18    12 MG   -4.610067417996E+00 -1.834076762300E-02  6.108609482800E-02
   19    12 MG    1.185316501500E-02 -2.334245670799E+00 -2.369674398033E+00
   20    20 CA    2.337192658297E+00 -5.447439068000E-03 -2.336804569440E+00
   21    12 MG   -2.337177913783E+00 -4.566897977870E+00 -2.409740170286E+00
   22    12 MG    2.315428313590E+00 -2.334235234016E+00 -5.035025677000E-03
   23    20 CA    4.682612797437E+00 -1.930060052200E-02  1.647631394900E-02
   24    20 CA    4.128621551800E-02 -4.652551265896E+00 -2.308066630600E-02
   25    12 MG   -2.350339000551E+00 -2.343624585979E+00 -4.648003123210E+00
   26    12 MG   -3.803703474200E-02 -6.588151114300E-02 -4.623253500390E+00
   27    20 CA   -4.617775358012E+00 -4.659658708978E+00 -4.714009010717E+00
   28     8 O    -3.436919337000E-03 -1.109235253470E-01 -2.447910213444E+00
   29     8 O     2.428430224563E+00  2.449070509612E+00 -2.335482573288E+00
   30     8 O    -2.339538591654E+00 -2.434850001847E+00 -2.424093012181E+00
   31     8 O     2.333709907014E+00 -9.067400381100E-02 -4.122357634000E-03
   32     8 O     4.670229612713E+00  2.327088457335E+00 -5.818575100400E-02
   33     8 O     1.039867220090E-01 -2.328514748656E+00 -5.815580485300E-02
   34     8 O     4.748162591487E+00 -9.103061275400E-02  2.334230722470E+00
   35     8 O     6.982163789990E+00  2.236225556466E+00  2.342968293502E+00
   36     8 O     2.424424477618E+00 -2.328983398863E+00  2.334910324041E+00
   37     8 O    -7.757749479800E-02  2.328509146339E+00  3.903373605000E-03
   38     8 O     2.338307923752E+00  4.741242265829E+00 -8.572552787800E-02
   39     8 O    -2.437990307557E+00  9.171554961900E-02  2.935806843900E-02
   40     8 O     2.331169766561E+00  2.326004082791E+00  2.325349175094E+00
   41     8 O     4.669606751386E+00  4.740658303981E+00  2.338175200565E+00
   42     8 O    -1.010830250850E-01  4.402686820000E-03  2.332087254207E+00
   43     8 O     4.659465532472E+00  2.318934585886E+00  4.733055498389E+00
   44     8 O     7.061921136679E+00  4.653159893153E+00  4.688200345204E+00
   45     8 O     2.321342674568E+00 -1.038247616020E-01  4.738032347167E+00
   46     8 O    -9.708520572000E-02  4.763277688123E+00  2.375197317525E+00
   47     8 O     2.390414871756E+00  6.983690559333E+00  2.317649044393E+00
   48     8 O    -2.333008378255E+00  2.314570968690E+00  2.336970571430E+00
   49     8 O     2.239094740742E+00  4.646320781816E+00  4.695647512998E+00
   50     8 O     4.660280913224E+00  7.067765392615E+00  4.647570807667E+00
   51     8 O    -9.477637676200E-02  2.438322395719E+00  4.664101677469E+00
   52     8 O     4.525327239372E+00  4.558005535780E+00  7.097373850023E+00
   53     8 O     7.110244494368E+00  6.991328475004E+00  7.119503864034E+00
   54     8 O     2.431386810396E+00  2.347184266628E+00  7.017700897232E+00
 WARNING **** CRYSTA **** TESTGEOM  DIRECTIVE - GEOMETRY EDITING COMPLETE
 TTTTTTTTTTTTTTTTTTTTTTTTTTTTTT END         TELAPSE        0.01 TCPU        0.01
 EEEEEEEEEE TERMINATION  DATE 10 03 2023 TIME 10:30:37.6
Fri 10 Mar 2023 10:30:37 GMT
Contents of temporary directory:
total 8
-rw-r--r--  1 brunocamino  admin  4027 10 Mar 10:30 fort.34
SCF abnormal end - no wf written in fort.9
geometry input file fort.34 saved as /Users/brunocamino/Desktop/Imperial/cmsg_icl/solid-solutions/./data/crystal/testgeom_opt/CaMgO_testgeom_2122.gui
temporary directory /Users/brunocamino/crystal/tmp removed
