date Fri 10 Mar 2023 10:29:25 GMT
hostname MacBook-Pro-8
system Darwin MacBook-Pro-8 21.6.0 Darwin Kernel Version 21.6.0: Mon Aug 22 20:20:05 PDT 2022; root:xnu-8020.140.49~2/RELEASE_ARM64_T8101 arm64
user brunocamino
output data in /Users/brunocamino/Desktop/Imperial/cmsg_icl/solid-solutions/./data/crystal/testgeom_opt/CaMgO_testgeom_1219.out
crystal executable in /Users/brunocamino/crystal
input data in /Users/brunocamino/Desktop/Imperial/cmsg_icl/solid-solutions/./data/crystal/testgeom_opt/CaMgO_testgeom_1219.d12
temporary directory /Users/brunocamino/crystal/tmp
external geometry input from /Users/brunocamino/Desktop/Imperial/cmsg_icl/solid-solutions/./data/crystal/testgeom_opt/CaMgO_testgeom_1219.gui
external geometry input saved in /Users/brunocamino/Desktop/Imperial/cmsg_icl/solid-solutions/./data/crystal/testgeom_opt/CaMgO_testgeom_1219_inp.gui
Bulk 
EXTERNAL
EXTPRT
TESTGEOM
END

         
 *******************************************************************************
 *                                                                             *
 *                               CRYSTAL17                                     *
 *                      public : 1.0.1 - Feb 1st, 2017                         *
 *                       HTTP://WWW.CRYSTAL.UNITO.IT                           *
 *                                                                             *
 *                              MAIN AUTHORS                                   *
 *                                                                             *
 *  R. DOVESI(1,11), V.R. SAUNDERS(2), C. ROETTI(1,11), R. ORLANDO(1,11),      *
 *  C.M. ZICOVICH-WILSON(1,3), F. PASCALE(4), B. CIVALLERI(1,11),              *
 *  K. DOLL(5), N.M. HARRISON(2,6), I.J. BUSH(7), Ph. D'ARCO(8),               *
 *  M. LLUNELL(9), M. CAUSA'(10), Y. NOEL(8), L. MASCHIO(1,11), A. ERBA(1,11)  *
 *  M. RE'RAT(14), S. CASASSA(1,11)                                            *
 *                                                                             *
 *        CONTRIBUTIONS TO THE CODE HAVE ALSO BEEN GIVEN BY                    *
 *                                                                             *
 *  M. FERRABONE(1,11), M. DE LA PIERRE(1,11), M. FERRERO(1,11),               *
 *  J. BAIMA(1,11), E. ALBANESE(1,11), M.F. PEINTINGER(12), R. BAST(13),       *
 *  B. KIRTMAN(15), V. LACIVITA(1,11), R. DEMICHELIS(1,16)                     *
 *  G. BRANDEBURG(17), S. SALUSTRO(1,11), G. SANSONE(1,11)                     *
 *  M.T. RUGGIERO(18)                                                          *
 *                                                                             *
 * (1) THEORETICAL CHEMISTRY GROUP - UNIVERSITA' DI TORINO - TORINO (ITALY)    *

 * (2) COMPUTATIONAL SCIENCE & ENGINEERING DEPARTMENT - STFC DARESBURY (UK)    *
 * (3) UNIVERSIDAD AUTONOMA DEL ESTADO DE MORELOS - CUERNAVACA (MEXICO)        *
 * (4) UNIVERSITE' DE LORRAINE - NANCY (FRANCE)                                *
 * (5) UNIVERSITAET STUTTGART- STUTTGART (GERMANY)                             *
 * (6) IMPERIAL COLLEGE - LONDON (UK)                                          *
 * (7) OXFORD E-RESEARCH CENTRE - OXFORD (UK)                                  *
 * (8) UPMC - SORBONNE UNIVERSITES - PARIS (FRANCE)                            *
 * (9) UNIVERSIDAD DE BARCELONA - BARCELONA (SPAIN)                            *
 *(10) UNIVERSITA' DI NAPOLI "FEDERICO II" - NAPOLI (ITALY)                    *
 *(11) NIS - NANOSTRUCTURED INTERFACES AND SURFACES - TORINO (ITALY)           *
 *(12) MPI FUER CHEMISCHE ENERGIEKONVERSION - MUELHEIM AN DER RUHR (GERMANY)   *
 *(13) UNIVERSITY OF TROMSO - TROMSO (NORWAY)                                  *
 *(14) UNIVERSITE' DE PAU ET DES PAYS DE L'ADOUR - PAU (FRANCE)                *
 *(15) UNIVERSITY OF CALIFORNIA SANTA BARBARA - SANTA BARBARA (USA)            *
 *(16) CURTIN UNIVERSITY - PERTH (AUSTRALIA)                                   *
 *(17) UNIVERSITY COLLEGE LONDON - LONDON (UK)                                 *
 *(18) CAMBRIDGE UNIVERSITY - CAMBRIDGE (UK)                                   *
 *                                                                             *
 *******************************************************************************
 EEEEEEEEEE STARTING  DATE 10 03 2023 TIME 10:29:25.3
 Bulk                                                                            

 GEOMETRY INPUT FROM EXTERNAL FILE (FORTRAN UNIT 34)
 3D - CRYSTAL 

 *******************************************************************************
 LATTICE PARAMETERS  (ANGSTROMS AND DEGREES) - PRIMITIVE CELL
       A          B          C        ALPHA      BETA     GAMMA        VOLUME
    9.89718    9.91327    9.91442    59.95127  59.97684  60.06668    687.800897
 INFORMATION **** CHKGRP **** SPGR WITH NO INVERSION

 NUMBER OF IRREDUCIBLE ATOMS IN THE CELL:   54

 CARTESIAN COORDINATES (ANGSTROM) - IRREDUCIBLE ATOMS AND SYMMETRY RELATED

 AT.IRR.  AT  AT.N.          X                   Y                   Z
     1     1    20    3.308742564000E-03 -1.653609827700E-02 -1.504182113000E-02
     2     2    20    2.354851925501E+00  2.329247655938E+00 -2.439726102100E-02
     3     3    20   -2.339358289904E+00 -2.322521832027E+00 -3.269783603100E-02
     4     4    20    2.351954829328E+00 -6.402392595200E-02  2.322251507809E+00
     5     5    20    4.700131627983E+00  2.331359988845E+00  2.330257649849E+00
     6     6    20    5.118095354600E-02 -2.355820706764E+00  2.352030771943E+00
     7     7    20   -2.353602242124E+00 -1.693922165500E-02 -2.317788563965E+00
     8     8    20    6.178694320000E-03  2.367521056361E+00 -2.339787823226E+00
     9     9    12   -4.662498315811E+00 -2.363997229478E+00 -2.304212957698E+00
    10    10    20   -7.207188703500E-02  2.349188853287E+00  2.350641057927E+00
    11    11    20    2.338850688998E+00  4.688955142404E+00  2.370248156406E+00
    12    12    20   -2.367052418029E+00  3.826474739700E-02  2.364387122332E+00
    13    13    20    2.332734462843E+00  2.350700368537E+00  4.716487148030E+00
    14    14    12    4.623678591530E+00  4.632614165371E+00  4.776533288956E+00
    15    15    20   -2.651491433900E-02 -2.614950631800E-02  4.702655674875E+00
    16    16    12   -2.440700808902E+00  2.310041364691E+00 -1.022851991100E-02
    17    17    20   -3.047622243900E-02  4.695288354358E+00 -1.848512299200E-02
    18    18    12   -4.621746985902E+00 -2.061273148800E-02  1.696777008000E-02
    19    19    12   -3.318555187500E-02 -2.359641202369E+00 -2.316146666649E+00
    20    20    20    2.369575099594E+00  1.137111695000E-03 -2.345012200635E+00
    21    21    12   -2.361100377666E+00 -4.546778599599E+00 -2.292398224533E+00
    22    22    12    2.419955901721E+00 -2.321027966703E+00 -9.389337684000E-02
    23    23    12    4.607547098224E+00  1.267248907100E-02 -7.463427384700E-02
    24    24    20    4.817268715500E-02 -4.677686544501E+00 -1.169262139200E-02
    25    25    20   -2.373063467315E+00 -2.356417560452E+00 -4.689655315779E+00
    26    26    20    1.342000046700E-02  1.022499865900E-02 -4.694687733608E+00
    27    27    12   -4.603191414379E+00 -4.606009599641E+00 -4.733026026678E+00
    28    28     8   -1.007157218700E-02 -1.109611462950E-01 -2.335003779282E+00
    29    29     8    2.448081114618E+00  2.436866563013E+00 -2.390775052308E+00
    30    30     8   -2.344476395514E+00 -2.413990384374E+00 -2.333116005881E+00
    31    31     8    2.439158751067E+00 -8.343905688700E-02 -4.576753882000E-03
    32    32     8    4.667229469816E+00  2.252264069712E+00 -9.796689939500E-02
    33    33     8    8.190154232600E-02 -2.337612892053E+00 -1.227354802490E-01
    34    34     8    4.672447741552E+00  6.286212238000E-03  2.240325969267E+00
    35    35     8    7.102248617322E+00  2.329237857830E+00  2.337259478433E+00
    36    36     8    2.350660150652E+00 -2.426951360325E+00  2.341487746812E+00
    37    37     8   -8.403539276100E-02  2.329950571132E+00  4.734080669000E-03
    38    38     8    2.351037493249E+00  4.745159269718E+00 -8.478068795000E-02
    39    39     8   -2.439129873518E+00  8.834959519800E-02 -2.169341030000E-04
    40    40     8    2.337893071442E+00  2.322521628869E+00  2.340153950227E+00
    41    41     8    4.683901302778E+00  4.661480219204E+00  2.396837511127E+00
    42    42     8    1.285935790000E-04  1.653528927000E-03  2.332002348901E+00
    43    43     8    4.669723711514E+00  2.417934929033E+00  4.759176075356E+00
    44    44     8    7.044008712879E+00  4.653504659480E+00  4.676347017691E+00
    45    45     8    2.344735787129E+00 -1.034448876780E-01  4.766732755308E+00
    46    46     8    1.909738493900E-02  4.669181972660E+00  2.446311766332E+00
    47    47     8    2.345414867956E+00  7.075441665101E+00  2.214707327271E+00
    48    48     8   -2.444184993831E+00  2.341034609665E+00  2.320396188494E+00
    49    49     8    2.394912433719E+00  4.663751484086E+00  4.769018292827E+00
    50    50     8    4.676049895544E+00  6.936555948553E+00  4.781060184801E+00
    51    51     8   -1.172552560600E-01  2.455734188144E+00  4.660156375404E+00
    52    52     8    4.583250813547E+00  4.657668740583E+00  6.893495793652E+00
    53    53     8    7.032568266812E+00  7.002944696182E+00  6.997171359440E+00
    54    54     8    2.457159343906E+00  2.362514189874E+00  7.077205013301E+00

 SYMMETRY CHANGED DURING OLD RUN :  INFORMATION ON SPACE GROUP LOST 
 NUMBER OF SYMMETRY OPERATORS         :    1
 *******************************************************************************
 LATTICE PARAMETERS (ANGSTROMS AND DEGREES) - BOHR = 0.5291772083 ANGSTROM
 PRIMITIVE CELL - CENTRING CODE 1/0 VOLUME=   687.800897 - DENSITY  3.300 g/cm^3
         A              B              C           ALPHA      BETA       GAMMA 
     9.89717860     9.91327306     9.91442063    59.951266  59.976838  60.066684
 *******************************************************************************
 ATOMS IN THE ASYMMETRIC UNIT   54 - ATOMS IN THE UNIT CELL:   54
     ATOM                 X/A                 Y/B                 Z/C    
 *******************************************************************************
      1 T  20 CA   -2.492992097471E-03  3.417926668715E-04  1.321492806128E-04
      2 T  20 CA   -3.220928429228E-03 -2.871409567400E-04  3.358290793824E-01
      3 T  20 CA   -1.487431373802E-03 -3.165497396604E-03 -3.301635359270E-01
      4 T  20 CA   -6.082855614925E-03  3.378081818418E-01 -2.721612465074E-03
      5 T  20 CA   -1.786111372833E-03  3.346395355649E-01  3.350306002816E-01
      6 T  20 CA   -3.656412575871E-03  3.396574693388E-01 -3.324067574893E-01
      7 T  20 CA    7.366783131567E-04 -3.318294376359E-01 -3.487244815077E-03
      8 T  20 CA    1.279588078933E-03 -3.355343577990E-01  3.364585779839E-01
      9 T  12 MG   -1.364211929151E-03 -3.277718043912E-01 -3.365337534464E-01
     10 T  20 CA    3.410886640713E-01 -4.961956541303E-03 -5.653075461800E-03
     11 T  20 CA    3.377705092065E-01  1.133914950341E-03  3.317816381750E-01
     12 T  20 CA    3.405890213742E-01 -2.479835242782E-03 -3.351426852496E-01
     13 T  20 CA    3.390383389869E-01  3.350448391110E-01 -3.046973226130E-03
     14 T  12 MG    3.430324950861E-01  3.396132736558E-01  3.188124447531E-01
     15 T  20 CA    3.364378842842E-01  3.356866871720E-01 -3.398514820098E-01
     16 T  12 MG    3.382282335317E-01 -3.393519712721E-01 -8.716871328752E-03
     17 T  20 CA    3.362150316315E-01 -3.385403586083E-01  3.339020316574E-01
     18 T  12 MG    3.291607777611E-01 -3.263895584503E-01 -3.324451814878E-01
     19 T  12 MG   -3.318652734863E-01  6.758708626568E-04 -5.067570639581E-03
     20 T  20 CA   -3.365684830909E-01  1.230894727735E-03  3.367471640875E-01
     21 T  12 MG   -3.204603733242E-01 -7.306202761142E-03 -3.287964133484E-01
     22 T  12 MG   -3.449829590857E-01  3.312259594155E-01  1.389492950417E-02
     23 T  12 MG   -3.328411185322E-01  3.218284837132E-01  3.349872897627E-01
     24 T  20 CA   -3.383779755885E-01  3.363900139347E-01 -3.292276642096E-01
     25 T  20 CA   -3.346527284653E-01 -3.355928762040E-01 -2.155776211534E-03
     26 T  20 CA   -3.360719488194E-01 -3.349138908801E-01  3.372123394431E-01
     27 T  12 MG   -3.394800858716E-01 -3.369471918308E-01 -3.185633107507E-01
     28 T   8 O    -1.742477391670E-01 -1.594879904246E-01  1.582512735054E-01
     29 T   8 O    -1.714636621289E-01 -1.702573817626E-01 -4.807229434468E-01
     30 T   8 O    -1.722217927664E-01 -1.612228048432E-01 -1.726408943611E-01
     31 T   8 O    -1.801403826435E-01  1.792972757751E-01  1.684128629025E-01
     32 T   8 O    -1.787993487699E-01  1.645973689819E-01 -4.994128120288E-01
     33 T   8 O    -1.815838851043E-01  1.638793231493E-01 -1.520469993412E-01
     34 T   8 O    -1.723168789901E-01  4.921632840300E-01  1.737141769576E-01
     35 T   8 O    -1.726498725044E-01 -4.936767186829E-01 -4.942294155279E-01
     36 T   8 O    -1.733886804229E-01 -4.922947695177E-01 -1.726561234902E-01
     37 T   8 O     1.727471757247E-01 -1.719082477789E-01  1.597819271721E-01
     38 T   8 O     1.652899326765E-01 -1.772662323008E-01 -4.878826259016E-01
     39 T   8 O     1.801461360038E-01 -1.799878376067E-01 -1.677180993237E-01
     40 T   8 O     1.666612634012E-01  1.677835993066E-01  1.651468170204E-01
     41 T   8 O     1.705646007662E-01  1.719619369808E-01  4.952424618246E-01
     42 T   8 O     1.669343247392E-01  1.663658564123E-01 -1.665393964736E-01
     43 T   8 O     1.803234432208E-01  4.996898175769E-01  1.654404552463E-01
     44 T   8 O     1.648463157788E-01 -4.967001879186E-01 -4.998466971906E-01
     45 T   8 O     1.664878441658E-01 -4.853885531536E-01 -1.807524953584E-01
     46 T   8 O    -4.928578824275E-01 -1.571932570456E-01  1.594206526598E-01
     47 T   8 O     4.966325985957E-01 -1.797994714554E-01 -4.864866141578E-01
     48 T   8 O    -4.925828748905E-01 -1.754353441940E-01 -1.733237764372E-01
     49 T   8 O    -4.964237571831E-01  1.781651061883E-01  1.625464327173E-01
     50 T   8 O    -4.958153633836E-01  1.792584510961E-01  4.864875108848E-01
     51 T   8 O    -4.828640320407E-01  1.490874043280E-01 -1.663399925466E-01
     52 T   8 O     4.991455615213E-01  4.860705596519E-01  1.664164784112E-01
     53 T   8 O     4.994983492519E-01 -4.994915925075E-01 -4.990248161253E-01
     54 T   8 O     4.998932739069E-01 -4.884144312661E-01 -1.620456838342E-01

 T = ATOM BELONGING TO THE ASYMMETRIC UNIT
 *******************************************************************************
 * GEOMETRY EDITING - INPUT COORDINATES ARE GIVEN IN ANGSTROM         
 *******************************************************************************

 GCALCO - MAX INDICES DIRECT LATTICE VECTOR    15    14    15
 NO.OF VECTORS CREATED 6999 STARS 3500 RMAX   198.23351 BOHR

 GEOMETRY FOR WAVE FUNCTION - DIMENSIONALITY OF THE SYSTEM    3
 (NON PERIODIC DIRECTION: LATTICE PARAMETER FORMALLY SET TO 500)
 *******************************************************************************
 LATTICE PARAMETERS (ANGSTROMS AND DEGREES) - BOHR = 0.5291772083 ANGSTROM
 PRIMITIVE CELL - CENTRING CODE 1/0 VOLUME=   687.800897 - DENSITY  3.300 g/cm^3
         A              B              C           ALPHA      BETA       GAMMA 
     9.89717860     9.91327306     9.91442063    59.951266  59.976838  60.066684
 *******************************************************************************
 ATOMS IN THE ASYMMETRIC UNIT   54 - ATOMS IN THE UNIT CELL:   54
     ATOM                 X/A                 Y/B                 Z/C    
 *******************************************************************************
      1 T  20 CA   -2.492992097471E-03  3.417926668715E-04  1.321492806128E-04
      2 T  20 CA   -3.220928429228E-03 -2.871409567399E-04  3.358290793824E-01
      3 T  20 CA   -1.487431373802E-03 -3.165497396604E-03 -3.301635359270E-01
      4 T  20 CA   -6.082855614925E-03  3.378081818418E-01 -2.721612465074E-03
      5 T  20 CA   -1.786111372833E-03  3.346395355649E-01  3.350306002816E-01
      6 T  20 CA   -3.656412575871E-03  3.396574693388E-01 -3.324067574893E-01
      7 T  20 CA    7.366783131567E-04 -3.318294376359E-01 -3.487244815077E-03
      8 T  20 CA    1.279588078933E-03 -3.355343577990E-01  3.364585779839E-01
      9 T  12 MG   -1.364211929150E-03 -3.277718043912E-01 -3.365337534464E-01
     10 T  20 CA    3.410886640713E-01 -4.961956541303E-03 -5.653075461800E-03
     11 T  20 CA    3.377705092065E-01  1.133914950341E-03  3.317816381750E-01
     12 T  20 CA    3.405890213742E-01 -2.479835242782E-03 -3.351426852496E-01
     13 T  20 CA    3.390383389869E-01  3.350448391110E-01 -3.046973226130E-03
     14 T  12 MG    3.430324950861E-01  3.396132736558E-01  3.188124447531E-01
     15 T  20 CA    3.364378842842E-01  3.356866871720E-01 -3.398514820098E-01
     16 T  12 MG    3.382282335317E-01 -3.393519712721E-01 -8.716871328752E-03
     17 T  20 CA    3.362150316315E-01 -3.385403586083E-01  3.339020316574E-01
     18 T  12 MG    3.291607777611E-01 -3.263895584503E-01 -3.324451814878E-01
     19 T  12 MG   -3.318652734863E-01  6.758708626567E-04 -5.067570639581E-03
     20 T  20 CA   -3.365684830909E-01  1.230894727735E-03  3.367471640875E-01
     21 T  12 MG   -3.204603733242E-01 -7.306202761142E-03 -3.287964133484E-01
     22 T  12 MG   -3.449829590857E-01  3.312259594155E-01  1.389492950417E-02
     23 T  12 MG   -3.328411185322E-01  3.218284837132E-01  3.349872897627E-01
     24 T  20 CA   -3.383779755885E-01  3.363900139347E-01 -3.292276642096E-01
     25 T  20 CA   -3.346527284653E-01 -3.355928762040E-01 -2.155776211534E-03
     26 T  20 CA   -3.360719488194E-01 -3.349138908801E-01  3.372123394431E-01
     27 T  12 MG   -3.394800858716E-01 -3.369471918308E-01 -3.185633107507E-01
     28 T   8 O    -1.742477391670E-01 -1.594879904246E-01  1.582512735054E-01
     29 T   8 O    -1.714636621289E-01 -1.702573817626E-01 -4.807229434468E-01
     30 T   8 O    -1.722217927664E-01 -1.612228048432E-01 -1.726408943611E-01
     31 T   8 O    -1.801403826435E-01  1.792972757751E-01  1.684128629025E-01
     32 T   8 O    -1.787993487699E-01  1.645973689819E-01 -4.994128120288E-01
     33 T   8 O    -1.815838851043E-01  1.638793231493E-01 -1.520469993412E-01
     34 T   8 O    -1.723168789901E-01  4.921632840300E-01  1.737141769576E-01
     35 T   8 O    -1.726498725044E-01 -4.936767186829E-01 -4.942294155279E-01
     36 T   8 O    -1.733886804229E-01 -4.922947695177E-01 -1.726561234902E-01
     37 T   8 O     1.727471757247E-01 -1.719082477789E-01  1.597819271721E-01
     38 T   8 O     1.652899326765E-01 -1.772662323008E-01 -4.878826259016E-01
     39 T   8 O     1.801461360038E-01 -1.799878376067E-01 -1.677180993237E-01
     40 T   8 O     1.666612634012E-01  1.677835993066E-01  1.651468170204E-01
     41 T   8 O     1.705646007662E-01  1.719619369808E-01  4.952424618246E-01
     42 T   8 O     1.669343247392E-01  1.663658564123E-01 -1.665393964736E-01
     43 T   8 O     1.803234432208E-01  4.996898175769E-01  1.654404552463E-01
     44 T   8 O     1.648463157788E-01 -4.967001879186E-01 -4.998466971906E-01
     45 T   8 O     1.664878441658E-01 -4.853885531536E-01 -1.807524953584E-01
     46 T   8 O    -4.928578824275E-01 -1.571932570456E-01  1.594206526598E-01
     47 T   8 O     4.966325985957E-01 -1.797994714554E-01 -4.864866141578E-01
     48 T   8 O    -4.925828748905E-01 -1.754353441940E-01 -1.733237764372E-01
     49 T   8 O    -4.964237571831E-01  1.781651061883E-01  1.625464327173E-01
     50 T   8 O    -4.958153633836E-01  1.792584510961E-01  4.864875108848E-01
     51 T   8 O    -4.828640320407E-01  1.490874043280E-01 -1.663399925466E-01
     52 T   8 O     4.991455615213E-01  4.860705596519E-01  1.664164784112E-01
     53 T   8 O     4.994983492519E-01 -4.994915925075E-01 -4.990248161253E-01
     54 T   8 O     4.998932739069E-01 -4.884144312661E-01 -1.620456838342E-01

 T = ATOM BELONGING TO THE ASYMMETRIC UNIT

 ****    1 SYMMOPS - TRANSLATORS IN FRACTIONAL UNITS
 **** MATRICES AND TRANSLATORS IN THE CRYSTALLOGRAPHIC REFERENCE FRAME
   V INV                    ROTATION MATRICES                   TRANSLATORS
   1   1  1.00  0.00  0.00  0.00  1.00  0.00  0.00  0.00  1.00  0.00  0.00  0.00

 DIRECT LATTICE VECTORS CARTESIAN COMPONENTS (ANGSTROM)
          X                    Y                    Z
   0.712546203266E-02   0.700328894073E+01   0.699342815885E+01
   0.701906855858E+01  -0.699966972527E-02   0.700040072573E+01
   0.701812464394E+01   0.700297527188E+01   0.411436424172E-03


 CARTESIAN COORDINATES - PRIMITIVE CELL
 *******************************************************************************
 *      ATOM          X(ANGSTROM)         Y(ANGSTROM)         Z(ANGSTROM)
 *******************************************************************************
    1    20 CA    3.308742564000E-03 -1.653609827700E-02 -1.504182113000E-02
    2    20 CA    2.354851925501E+00  2.329247655938E+00 -2.439726102100E-02
    3    20 CA   -2.339358289904E+00 -2.322521832027E+00 -3.269783603100E-02
    4    20 CA    2.351954829328E+00 -6.402392595200E-02  2.322251507809E+00
    5    20 CA    4.700131627983E+00  2.331359988845E+00  2.330257649849E+00
    6    20 CA    5.118095354600E-02 -2.355820706764E+00  2.352030771943E+00
    7    20 CA   -2.353602242124E+00 -1.693922165500E-02 -2.317788563965E+00
    8    20 CA    6.178694320000E-03  2.367521056361E+00 -2.339787823226E+00
    9    12 MG   -4.662498315811E+00 -2.363997229478E+00 -2.304212957698E+00
   10    20 CA   -7.207188703500E-02  2.349188853287E+00  2.350641057927E+00
   11    20 CA    2.338850688998E+00  4.688955142404E+00  2.370248156406E+00
   12    20 CA   -2.367052418029E+00  3.826474739700E-02  2.364387122332E+00
   13    20 CA    2.332734462843E+00  2.350700368537E+00  4.716487148030E+00
   14    12 MG    4.623678591530E+00  4.632614165371E+00  4.776533288956E+00
   15    20 CA   -2.651491433900E-02 -2.614950631800E-02  4.702655674875E+00
   16    12 MG   -2.440700808902E+00  2.310041364691E+00 -1.022851991100E-02
   17    20 CA   -3.047622243900E-02  4.695288354358E+00 -1.848512299200E-02
   18    12 MG   -4.621746985902E+00 -2.061273148800E-02  1.696777008000E-02
   19    12 MG   -3.318555187500E-02 -2.359641202369E+00 -2.316146666649E+00
   20    20 CA    2.369575099594E+00  1.137111695000E-03 -2.345012200635E+00
   21    12 MG   -2.361100377666E+00 -4.546778599599E+00 -2.292398224533E+00
   22    12 MG    2.419955901721E+00 -2.321027966703E+00 -9.389337684000E-02
   23    12 MG    4.607547098224E+00  1.267248907100E-02 -7.463427384700E-02
   24    20 CA    4.817268715500E-02 -4.677686544501E+00 -1.169262139200E-02
   25    20 CA   -2.373063467315E+00 -2.356417560452E+00 -4.689655315779E+00
   26    20 CA    1.342000046700E-02  1.022499865900E-02 -4.694687733608E+00
   27    12 MG   -4.603191414379E+00 -4.606009599641E+00 -4.733026026678E+00
   28     8 O    -1.007157218700E-02 -1.109611462950E-01 -2.335003779282E+00
   29     8 O     2.448081114618E+00  2.436866563013E+00 -2.390775052308E+00
   30     8 O    -2.344476395514E+00 -2.413990384374E+00 -2.333116005881E+00
   31     8 O     2.439158751067E+00 -8.343905688700E-02 -4.576753882000E-03
   32     8 O     4.667229469816E+00  2.252264069712E+00 -9.796689939500E-02
   33     8 O     8.190154232600E-02 -2.337612892053E+00 -1.227354802490E-01
   34     8 O     4.672447741552E+00  6.286212238000E-03  2.240325969267E+00
   35     8 O     7.102248617322E+00  2.329237857830E+00  2.337259478433E+00
   36     8 O     2.350660150652E+00 -2.426951360325E+00  2.341487746812E+00
   37     8 O    -8.403539276100E-02  2.329950571132E+00  4.734080669000E-03
   38     8 O     2.351037493249E+00  4.745159269718E+00 -8.478068795000E-02
   39     8 O    -2.439129873518E+00  8.834959519800E-02 -2.169341029996E-04
   40     8 O     2.337893071442E+00  2.322521628869E+00  2.340153950227E+00
   41     8 O     4.683901302778E+00  4.661480219204E+00  2.396837511127E+00
   42     8 O     1.285935790000E-04  1.653528927000E-03  2.332002348901E+00
   43     8 O     4.669723711514E+00  2.417934929033E+00  4.759176075356E+00
   44     8 O     7.044008712879E+00  4.653504659480E+00  4.676347017691E+00
   45     8 O     2.344735787129E+00 -1.034448876780E-01  4.766732755308E+00
   46     8 O     1.909738493900E-02  4.669181972660E+00  2.446311766332E+00
   47     8 O     2.345414867956E+00  7.075441665101E+00  2.214707327271E+00
   48     8 O    -2.444184993831E+00  2.341034609665E+00  2.320396188494E+00
   49     8 O     2.394912433719E+00  4.663751484086E+00  4.769018292827E+00
   50     8 O     4.676049895544E+00  6.936555948553E+00  4.781060184801E+00
   51     8 O    -1.172552560600E-01  2.455734188144E+00  4.660156375404E+00
   52     8 O     4.583250813547E+00  4.657668740583E+00  6.893495793652E+00
   53     8 O     7.032568266812E+00  7.002944696182E+00  6.997171359440E+00
   54     8 O     2.457159343906E+00  2.362514189874E+00  7.077205013301E+00
 WARNING **** CRYSTA **** TESTGEOM  DIRECTIVE - GEOMETRY EDITING COMPLETE
 TTTTTTTTTTTTTTTTTTTTTTTTTTTTTT END         TELAPSE        0.01 TCPU        0.01
 EEEEEEEEEE TERMINATION  DATE 10 03 2023 TIME 10:29:25.4
Fri 10 Mar 2023 10:29:25 GMT
Contents of temporary directory:
total 8
-rw-r--r--  1 brunocamino  admin  4027 10 Mar 10:29 fort.34
SCF abnormal end - no wf written in fort.9
geometry input file fort.34 saved as /Users/brunocamino/Desktop/Imperial/cmsg_icl/solid-solutions/./data/crystal/testgeom_opt/CaMgO_testgeom_1219.gui
temporary directory /Users/brunocamino/crystal/tmp removed
