date Fri 10 Mar 2023 10:31:38 GMT
hostname MacBook-Pro-8
system Darwin MacBook-Pro-8 21.6.0 Darwin Kernel Version 21.6.0: Mon Aug 22 20:20:05 PDT 2022; root:xnu-8020.140.49~2/RELEASE_ARM64_T8101 arm64
user brunocamino
output data in /Users/brunocamino/Desktop/Imperial/cmsg_icl/solid-solutions/./data/crystal/testgeom_opt/CaMgO_testgeom_2877.out
crystal executable in /Users/brunocamino/crystal
input data in /Users/brunocamino/Desktop/Imperial/cmsg_icl/solid-solutions/./data/crystal/testgeom_opt/CaMgO_testgeom_2877.d12
temporary directory /Users/brunocamino/crystal/tmp
external geometry input from /Users/brunocamino/Desktop/Imperial/cmsg_icl/solid-solutions/./data/crystal/testgeom_opt/CaMgO_testgeom_2877.gui
external geometry input saved in /Users/brunocamino/Desktop/Imperial/cmsg_icl/solid-solutions/./data/crystal/testgeom_opt/CaMgO_testgeom_2877_inp.gui
Bulk 
EXTERNAL
EXTPRT
TESTGEOM
END

         
 *******************************************************************************
 *                                                                             *
 *                               CRYSTAL17                                     *
 *                      public : 1.0.1 - Feb 1st, 2017                         *
 *                       HTTP://WWW.CRYSTAL.UNITO.IT                           *
 *                                                                             *
 *                              MAIN AUTHORS                                   *
 *                                                                             *
 *  R. DOVESI(1,11), V.R. SAUNDERS(2), C. ROETTI(1,11), R. ORLANDO(1,11),      *
 *  C.M. ZICOVICH-WILSON(1,3), F. PASCALE(4), B. CIVALLERI(1,11),              *
 *  K. DOLL(5), N.M. HARRISON(2,6), I.J. BUSH(7), Ph. D'ARCO(8),               *
 *  M. LLUNELL(9), M. CAUSA'(10), Y. NOEL(8), L. MASCHIO(1,11), A. ERBA(1,11)  *
 *  M. RE'RAT(14), S. CASASSA(1,11)                                            *
 *                                                                             *
 *        CONTRIBUTIONS TO THE CODE HAVE ALSO BEEN GIVEN BY                    *
 *                                                                             *
 *  M. FERRABONE(1,11), M. DE LA PIERRE(1,11), M. FERRERO(1,11),               *
 *  J. BAIMA(1,11), E. ALBANESE(1,11), M.F. PEINTINGER(12), R. BAST(13),       *
 *  B. KIRTMAN(15), V. LACIVITA(1,11), R. DEMICHELIS(1,16)                     *
 *  G. BRANDEBURG(17), S. SALUSTRO(1,11), G. SANSONE(1,11)                     *
 *  M.T. RUGGIERO(18)                                                          *
 *                                                                             *
 * (1) THEORETICAL CHEMISTRY GROUP - UNIVERSITA' DI TORINO - TORINO (ITALY)    *

 * (2) COMPUTATIONAL SCIENCE & ENGINEERING DEPARTMENT - STFC DARESBURY (UK)    *
 * (3) UNIVERSIDAD AUTONOMA DEL ESTADO DE MORELOS - CUERNAVACA (MEXICO)        *
 * (4) UNIVERSITE' DE LORRAINE - NANCY (FRANCE)                                *
 * (5) UNIVERSITAET STUTTGART- STUTTGART (GERMANY)                             *
 * (6) IMPERIAL COLLEGE - LONDON (UK)                                          *
 * (7) OXFORD E-RESEARCH CENTRE - OXFORD (UK)                                  *
 * (8) UPMC - SORBONNE UNIVERSITES - PARIS (FRANCE)                            *
 * (9) UNIVERSIDAD DE BARCELONA - BARCELONA (SPAIN)                            *
 *(10) UNIVERSITA' DI NAPOLI "FEDERICO II" - NAPOLI (ITALY)                    *
 *(11) NIS - NANOSTRUCTURED INTERFACES AND SURFACES - TORINO (ITALY)           *
 *(12) MPI FUER CHEMISCHE ENERGIEKONVERSION - MUELHEIM AN DER RUHR (GERMANY)   *
 *(13) UNIVERSITY OF TROMSO - TROMSO (NORWAY)                                  *
 *(14) UNIVERSITE' DE PAU ET DES PAYS DE L'ADOUR - PAU (FRANCE)                *
 *(15) UNIVERSITY OF CALIFORNIA SANTA BARBARA - SANTA BARBARA (USA)            *
 *(16) CURTIN UNIVERSITY - PERTH (AUSTRALIA)                                   *
 *(17) UNIVERSITY COLLEGE LONDON - LONDON (UK)                                 *
 *(18) CAMBRIDGE UNIVERSITY - CAMBRIDGE (UK)                                   *
 *                                                                             *
 *******************************************************************************
 EEEEEEEEEE STARTING  DATE 10 03 2023 TIME 10:31:38.2
 Bulk                                                                            

 GEOMETRY INPUT FROM EXTERNAL FILE (FORTRAN UNIT 34)
 3D - CRYSTAL 

 *******************************************************************************
 LATTICE PARAMETERS  (ANGSTROMS AND DEGREES) - PRIMITIVE CELL
       A          B          C        ALPHA      BETA     GAMMA        VOLUME
    9.91820    9.91968    9.90692    59.92892  60.07615  60.00495    689.263172
 INFORMATION **** CHKGRP **** SPGR WITH NO INVERSION

 NUMBER OF IRREDUCIBLE ATOMS IN THE CELL:   54

 CARTESIAN COORDINATES (ANGSTROM) - IRREDUCIBLE ATOMS AND SYMMETRY RELATED

 AT.IRR.  AT  AT.N.          X                   Y                   Z
     1     1    20    3.628691004200E-02 -3.203572570300E-02 -2.921716436800E-02
     2     2    20    2.346847529313E+00  2.303411671237E+00 -5.581135652000E-02
     3     3    20   -2.332295763412E+00 -2.323221159129E+00 -1.863769403000E-03
     4     4    20    2.351971841402E+00 -1.587514422100E-02  2.356635941762E+00
     5     5    20    4.674514670049E+00  2.321166806710E+00  2.334948231249E+00
     6     6    20    1.497278080800E-02 -2.324910170289E+00  2.356024210637E+00
     7     7    20   -2.335635961585E+00 -1.875014997400E-02 -2.351492311196E+00
     8     8    20    1.156446136100E-02  2.324305657164E+00 -2.360388471992E+00
     9     9    12   -4.674660845982E+00 -2.339625641096E+00 -2.304099794675E+00
    10    10    20   -3.940024088000E-03  2.350602928708E+00  2.361192154759E+00
    11    11    20    2.340365377693E+00  4.707251824883E+00  2.428087263101E+00
    12    12    12   -2.394718530988E+00 -1.421425531100E-02  2.386797274284E+00
    13    13    12    2.341833958511E+00  2.461136536233E+00  4.702574252361E+00
    14    14    12    4.559501484214E+00  4.722471373716E+00  4.693695609546E+00
    15    15    20   -2.743672299700E-02 -8.096633550000E-03  4.678200711681E+00
    16    16    20   -2.382893943608E+00  2.375327929556E+00 -2.698875664200E-02
    17    17    20   -3.231501186600E-02  4.700311578058E+00 -4.105460824000E-03
    18    18    20   -4.678467103126E+00  1.945793163500E-02  3.847532619000E-03
    19    19    12    1.303622208710E-01 -2.303831402669E+00 -2.340902918312E+00
    20    20    12    2.351570289169E+00 -1.022197007440E-01 -2.374351508978E+00
    21    21    20   -2.350606020747E+00 -4.703256293193E+00 -2.336342486508E+00
    22    22    12    2.346833421454E+00 -2.314200747340E+00 -1.342227899110E-01
    23    23    12    4.631302137642E+00 -6.836192535700E-02 -1.469551651900E-02
    24    24    20    1.797893984000E-02 -4.661165224600E+00 -3.701675913900E-02
    25    25    20   -2.344237873311E+00 -2.314740761373E+00 -4.683949153054E+00
    26    26    12   -4.232372783300E-02 -3.908702822800E-02 -4.640433227126E+00
    27    27    20   -4.683988032137E+00 -4.689974214981E+00 -4.656755953341E+00
    28    28     8    1.153036414060E-01 -1.325816411360E-01 -2.434564368304E+00
    29    29     8    2.334246391482E+00  2.336129693259E+00 -2.327992606191E+00
    30    30     8   -2.386542908437E+00 -2.345629103813E+00 -2.335296105055E+00
    31    31     8    2.444940113429E+00 -1.062648564740E-01 -1.059253197180E-01
    32    32     8    4.678221059685E+00  2.252772549312E+00 -1.358504126700E-02
    33    33     8    1.152423017480E-01 -2.322138493058E+00 -5.056854106200E-02
    34    34     8    4.739794267334E+00 -3.383270060000E-04  2.289156014888E+00
    35    35     8    7.006584459348E+00  2.233200538675E+00  2.334380530468E+00
    36    36     8    2.343438109235E+00 -2.338793486802E+00  2.354402663831E+00
    37    37     8   -2.542716253000E-03  2.333955699597E+00 -1.576361083000E-02
    38    38     8    2.343726557218E+00  4.665315071579E+00 -2.456468004000E-02
    39    39     8   -2.322621071452E+00  6.525502594000E-03  5.498375880100E-02
    40    40     8    2.332023930399E+00  2.343337647763E+00  2.395164506394E+00
    41    41     8    4.679016750394E+00  4.776040599125E+00  2.445175803346E+00
    42    42     8   -5.816404447000E-02  1.362866178800E-02  2.371234848806E+00
    43    43     8    4.568446488704E+00  2.423360947809E+00  4.676381460092E+00
    44    44     8    7.071879801042E+00  4.654328353065E+00  4.696032888663E+00
    45    45     8    2.336470791867E+00 -3.647016166100E-02  4.687106449114E+00
    46    46     8    6.816838314000E-03  4.784911172857E+00  2.433136281068E+00
    47    47     8    2.390697903166E+00  6.998206881313E+00  2.452628366576E+00
    48    48     8   -2.340562539103E+00  2.263495742633E+00  2.339653319541E+00
    49    49     8    2.344646245526E+00  4.639969011656E+00  4.752254209862E+00
    50    50     8    4.568184089733E+00  6.880866297823E+00  4.661642748436E+00
    51    51     8    1.122613773560E-01  2.448329057332E+00  4.671356808686E+00
    52    52     8    4.575223371963E+00  4.778619435733E+00  6.902289140225E+00
    53    53     8    6.933427959237E+00  6.997866480313E+00  7.066149911809E+00
    54    54     8    2.341148862003E+00  2.432132698789E+00  6.929162716583E+00

 SYMMETRY CHANGED DURING OLD RUN :  INFORMATION ON SPACE GROUP LOST 
 NUMBER OF SYMMETRY OPERATORS         :    1
 *******************************************************************************
 LATTICE PARAMETERS (ANGSTROMS AND DEGREES) - BOHR = 0.5291772083 ANGSTROM
 PRIMITIVE CELL - CENTRING CODE 1/0 VOLUME=   689.263172 - DENSITY  3.293 g/cm^3
         A              B              C           ALPHA      BETA       GAMMA 
     9.91819509     9.91967559     9.90691661    59.928924  60.076146  60.004949
 *******************************************************************************
 ATOMS IN THE ASYMMETRIC UNIT   54 - ATOMS IN THE UNIT CELL:   54
     ATOM                 X/A                 Y/B                 Z/C    
 *******************************************************************************
      1 T  20 CA   -6.948132945372E-03  2.787726807049E-03  2.381803321377E-03
      2 T  20 CA   -6.604093210109E-03 -1.506121352898E-03  3.359691291360E-01
      3 T  20 CA    4.760825016015E-05 -1.576342313610E-04 -3.322331539721E-01
      4 T  20 CA   -6.075754987974E-04  3.367196558482E-01 -1.540328688740E-03
      5 T  20 CA   -6.527640691554E-04  3.335149577875E-01  3.326653579956E-01
      6 T  20 CA    8.759107502921E-04  3.353028344992E-01 -3.331841577018E-01
      7 T  20 CA   -2.658557004554E-03 -3.327154916833E-01 -1.367452083560E-04
      8 T  20 CA   -3.117837742699E-03 -3.336818636183E-01  3.353445193863E-01
      9 T  12 MG    1.543435566892E-03 -3.300052680058E-01 -3.361958073996E-01
     10 T  20 CA    3.361581756326E-01  2.275492406887E-04 -7.006455717130E-04
     11 T  20 CA    3.422729079725E-01  3.491590129326E-03  3.301391525258E-01
     12 T  12 MG    3.393553188144E-01  8.388332014868E-04 -3.420366849545E-01
     13 T  12 MG    3.439235499592E-01  3.263848204632E-01  7.440801254948E-03
     14 T  12 MG    3.468506593470E-01  3.220378513589E-01  3.278431242920E-01
     15 T  20 CA    3.345813691203E-01  3.324224192283E-01 -3.362598795933E-01
     16 T  20 CA    3.370699270168E-01 -3.412961124902E-01  1.798596586509E-03
     17 T  20 CA    3.373444586284E-01 -3.384630752197E-01  3.339619637637E-01
     18 T  20 CA    3.345047473852E-01 -3.341732995873E-01 -3.324824469530E-01
     19 T  12 MG   -3.403703258991E-01  6.877896777368E-03  1.161102333403E-02
     20 T  12 MG   -3.437059819425E-01  5.297501671724E-03  3.297495835862E-01
     21 T  20 CA   -3.347247312892E-01  2.040011788813E-03 -3.371284845816E-01
     22 T  12 MG   -3.416257818389E-01  3.228583255496E-01  1.149961777056E-02
     23 T  12 MG   -3.354109141434E-01  3.335361588882E-01  3.263975891549E-01
     24 T  20 CA   -3.364606422337E-01  3.317110858007E-01 -3.292525591732E-01
     25 T  20 CA   -3.319815214787E-01 -3.356880103978E-01  1.523360475828E-03
     26 T  12 MG   -3.302946192867E-01 -3.313222582873E-01  3.252187751206E-01
     27 T  20 CA   -3.330447373478E-01 -3.305864209342E-01 -3.370319262416E-01
     28 T   8 O    -1.910649801128E-01 -1.560277680901E-01  1.724173619058E-01
     29 T   8 O    -1.652105670741E-01 -1.668648645587E-01  4.994978829177E-01
     30 T   8 O    -1.638915541605E-01 -1.689123652936E-01 -1.712449053705E-01
     31 T   8 O    -1.890675008223E-01  1.740893184846E-01  1.742974311195E-01
     32 T   8 O    -1.730713510596E-01  1.710944691501E-01  4.955761815028E-01
     33 T   8 O    -1.774705840566E-01  1.705286877852E-01 -1.541592804001E-01
     34 T   8 O    -1.741834444576E-01 -4.992176305897E-01  1.746480266349E-01
     35 T   8 O    -1.728806390412E-01 -4.942210247123E-01  4.927067118443E-01
     36 T   8 O    -1.658852351513E-01 -4.980586785833E-01 -1.680292718060E-01
     37 T   8 O     1.655712864304E-01 -1.680829935332E-01  1.677719024296E-01
     38 T   8 O     1.643505562812E-01 -1.682730776327E-01 -4.976560610680E-01
     39 T   8 O     1.696211798810E-01 -1.618891923340E-01 -1.690707430507E-01
     40 T   8 O     1.718708990902E-01  1.694666361317E-01  1.629228500442E-01
     41 T   8 O     1.820178633565E-01  1.662827195912E-01 -4.994050354390E-01
     42 T   8 O     1.740026423343E-01  1.640768518623E-01 -1.723279647447E-01
     43 T   8 O     1.809539051620E-01  4.857265343861E-01  1.653780810776E-01
     44 T   8 O     1.634161789053E-01 -4.940713018769E-01 -4.980488799542E-01
     45 T   8 O     1.650147669315E-01 -4.966294207072E-01 -1.703645040273E-01
     46 T   8 O    -4.858101640205E-01 -1.678214491674E-01  1.689359485314E-01
     47 T   8 O    -4.961146399596E-01 -1.548787470832E-01  4.957325088705E-01
     48 T   8 O     4.946450015940E-01 -1.614277058427E-01 -1.720037035448E-01
     49 T   8 O    -4.972919610243E-01  1.744371727725E-01  1.598380069925E-01
     50 T   8 O     4.979379629203E-01  1.661367455713E-01  4.850285627801E-01
     51 T   8 O     4.994059259190E-01  1.663505792923E-01 -1.502277454654E-01
     52 T   8 O    -4.929539133851E-01  4.767315798999E-01  1.754250523388E-01
     53 T   8 O    -4.907243560265E-01  4.977220595427E-01  4.905174385753E-01
     54 T   8 O    -4.995071309677E-01  4.872792023044E-01 -1.535174303604E-01

 T = ATOM BELONGING TO THE ASYMMETRIC UNIT
 *******************************************************************************
 * GEOMETRY EDITING - INPUT COORDINATES ARE GIVEN IN ANGSTROM         
 *******************************************************************************

 GCALCO - MAX INDICES DIRECT LATTICE VECTOR    14    15    15
 NO.OF VECTORS CREATED 6999 STARS 3500 RMAX   198.37132 BOHR

 GEOMETRY FOR WAVE FUNCTION - DIMENSIONALITY OF THE SYSTEM    3
 (NON PERIODIC DIRECTION: LATTICE PARAMETER FORMALLY SET TO 500)
 *******************************************************************************
 LATTICE PARAMETERS (ANGSTROMS AND DEGREES) - BOHR = 0.5291772083 ANGSTROM
 PRIMITIVE CELL - CENTRING CODE 1/0 VOLUME=   689.263172 - DENSITY  3.293 g/cm^3
         A              B              C           ALPHA      BETA       GAMMA 
     9.91819509     9.91967559     9.90691661    59.928924  60.076146  60.004949
 *******************************************************************************
 ATOMS IN THE ASYMMETRIC UNIT   54 - ATOMS IN THE UNIT CELL:   54
     ATOM                 X/A                 Y/B                 Z/C    
 *******************************************************************************
      1 T  20 CA   -6.948132945372E-03  2.787726807049E-03  2.381803321377E-03
      2 T  20 CA   -6.604093210109E-03 -1.506121352898E-03  3.359691291360E-01
      3 T  20 CA    4.760825016021E-05 -1.576342313610E-04 -3.322331539721E-01
      4 T  20 CA   -6.075754987973E-04  3.367196558482E-01 -1.540328688740E-03
      5 T  20 CA   -6.527640691554E-04  3.335149577875E-01  3.326653579956E-01
      6 T  20 CA    8.759107502922E-04  3.353028344992E-01 -3.331841577018E-01
      7 T  20 CA   -2.658557004554E-03 -3.327154916833E-01 -1.367452083561E-04
      8 T  20 CA   -3.117837742699E-03 -3.336818636183E-01  3.353445193863E-01
      9 T  12 MG    1.543435566892E-03 -3.300052680058E-01 -3.361958073996E-01
     10 T  20 CA    3.361581756326E-01  2.275492406887E-04 -7.006455717130E-04
     11 T  20 CA    3.422729079725E-01  3.491590129326E-03  3.301391525258E-01
     12 T  12 MG    3.393553188144E-01  8.388332014868E-04 -3.420366849545E-01
     13 T  12 MG    3.439235499592E-01  3.263848204632E-01  7.440801254948E-03
     14 T  12 MG    3.468506593470E-01  3.220378513589E-01  3.278431242920E-01
     15 T  20 CA    3.345813691203E-01  3.324224192283E-01 -3.362598795933E-01
     16 T  20 CA    3.370699270168E-01 -3.412961124902E-01  1.798596586509E-03
     17 T  20 CA    3.373444586284E-01 -3.384630752197E-01  3.339619637637E-01
     18 T  20 CA    3.345047473852E-01 -3.341732995873E-01 -3.324824469530E-01
     19 T  12 MG   -3.403703258991E-01  6.877896777368E-03  1.161102333403E-02
     20 T  12 MG   -3.437059819425E-01  5.297501671724E-03  3.297495835862E-01
     21 T  20 CA   -3.347247312892E-01  2.040011788813E-03 -3.371284845816E-01
     22 T  12 MG   -3.416257818389E-01  3.228583255496E-01  1.149961777056E-02
     23 T  12 MG   -3.354109141434E-01  3.335361588882E-01  3.263975891549E-01
     24 T  20 CA   -3.364606422337E-01  3.317110858007E-01 -3.292525591732E-01
     25 T  20 CA   -3.319815214787E-01 -3.356880103978E-01  1.523360475828E-03
     26 T  12 MG   -3.302946192867E-01 -3.313222582873E-01  3.252187751206E-01
     27 T  20 CA   -3.330447373478E-01 -3.305864209342E-01 -3.370319262416E-01
     28 T   8 O    -1.910649801128E-01 -1.560277680901E-01  1.724173619058E-01
     29 T   8 O    -1.652105670741E-01 -1.668648645587E-01  4.994978829177E-01
     30 T   8 O    -1.638915541605E-01 -1.689123652936E-01 -1.712449053705E-01
     31 T   8 O    -1.890675008223E-01  1.740893184846E-01  1.742974311195E-01
     32 T   8 O    -1.730713510596E-01  1.710944691501E-01  4.955761815028E-01
     33 T   8 O    -1.774705840566E-01  1.705286877852E-01 -1.541592804001E-01
     34 T   8 O    -1.741834444576E-01 -4.992176305897E-01  1.746480266349E-01
     35 T   8 O    -1.728806390412E-01 -4.942210247123E-01  4.927067118443E-01
     36 T   8 O    -1.658852351513E-01 -4.980586785833E-01 -1.680292718060E-01
     37 T   8 O     1.655712864304E-01 -1.680829935332E-01  1.677719024296E-01
     38 T   8 O     1.643505562812E-01 -1.682730776327E-01 -4.976560610680E-01
     39 T   8 O     1.696211798810E-01 -1.618891923340E-01 -1.690707430507E-01
     40 T   8 O     1.718708990902E-01  1.694666361317E-01  1.629228500442E-01
     41 T   8 O     1.820178633565E-01  1.662827195912E-01 -4.994050354390E-01
     42 T   8 O     1.740026423343E-01  1.640768518623E-01 -1.723279647447E-01
     43 T   8 O     1.809539051620E-01  4.857265343861E-01  1.653780810776E-01
     44 T   8 O     1.634161789053E-01 -4.940713018769E-01 -4.980488799542E-01
     45 T   8 O     1.650147669315E-01 -4.966294207072E-01 -1.703645040273E-01
     46 T   8 O    -4.858101640205E-01 -1.678214491674E-01  1.689359485314E-01
     47 T   8 O    -4.961146399596E-01 -1.548787470832E-01  4.957325088705E-01
     48 T   8 O     4.946450015940E-01 -1.614277058427E-01 -1.720037035448E-01
     49 T   8 O    -4.972919610243E-01  1.744371727725E-01  1.598380069925E-01
     50 T   8 O     4.979379629203E-01  1.661367455713E-01  4.850285627801E-01
     51 T   8 O     4.994059259190E-01  1.663505792923E-01 -1.502277454654E-01
     52 T   8 O    -4.929539133851E-01  4.767315798999E-01  1.754250523388E-01
     53 T   8 O    -4.907243560265E-01  4.977220595427E-01  4.905174385753E-01
     54 T   8 O    -4.995071309677E-01  4.872792023044E-01 -1.535174303604E-01

 T = ATOM BELONGING TO THE ASYMMETRIC UNIT

 ****    1 SYMMOPS - TRANSLATORS IN FRACTIONAL UNITS
 **** MATRICES AND TRANSLATORS IN THE CRYSTALLOGRAPHIC REFERENCE FRAME
   V INV                    ROTATION MATRICES                   TRANSLATORS
   1   1  1.00  0.00  0.00  0.00  1.00  0.00  0.00  0.00  1.00  0.00  0.00  0.00

 DIRECT LATTICE VECTORS CARTESIAN COMPONENTS (ANGSTROM)
          X                    Y                    Z
  -0.184588530488E-02   0.700712881478E+01   0.701931165580E+01
   0.701705037323E+01  -0.250984113230E-02   0.701148783147E+01
   0.701672762131E+01   0.699374858929E+01   0.328894344284E-02


 CARTESIAN COORDINATES - PRIMITIVE CELL
 *******************************************************************************
 *      ATOM          X(ANGSTROM)         Y(ANGSTROM)         Z(ANGSTROM)
 *******************************************************************************
    1    20 CA    3.628691004200E-02 -3.203572570300E-02 -2.921716436800E-02
    2    20 CA    2.346847529313E+00  2.303411671237E+00 -5.581135652000E-02
    3    20 CA   -2.332295763412E+00 -2.323221159129E+00 -1.863769403000E-03
    4    20 CA    2.351971841402E+00 -1.587514422100E-02  2.356635941762E+00
    5    20 CA    4.674514670049E+00  2.321166806710E+00  2.334948231249E+00
    6    20 CA    1.497278080800E-02 -2.324910170289E+00  2.356024210637E+00
    7    20 CA   -2.335635961585E+00 -1.875014997400E-02 -2.351492311196E+00
    8    20 CA    1.156446136100E-02  2.324305657164E+00 -2.360388471992E+00
    9    12 MG   -4.674660845982E+00 -2.339625641096E+00 -2.304099794675E+00
   10    20 CA   -3.940024088000E-03  2.350602928708E+00  2.361192154759E+00
   11    20 CA    2.340365377693E+00  4.707251824883E+00  2.428087263101E+00
   12    12 MG   -2.394718530988E+00 -1.421425531100E-02  2.386797274284E+00
   13    12 MG    2.341833958511E+00  2.461136536233E+00  4.702574252361E+00
   14    12 MG    4.559501484214E+00  4.722471373716E+00  4.693695609546E+00
   15    20 CA   -2.743672299700E-02 -8.096633550000E-03  4.678200711681E+00
   16    20 CA   -2.382893943608E+00  2.375327929556E+00 -2.698875664200E-02
   17    20 CA   -3.231501186600E-02  4.700311578058E+00 -4.105460824000E-03
   18    20 CA   -4.678467103126E+00  1.945793163500E-02  3.847532619000E-03
   19    12 MG    1.303622208710E-01 -2.303831402669E+00 -2.340902918312E+00
   20    12 MG    2.351570289169E+00 -1.022197007440E-01 -2.374351508978E+00
   21    20 CA   -2.350606020747E+00 -4.703256293193E+00 -2.336342486508E+00
   22    12 MG    2.346833421454E+00 -2.314200747340E+00 -1.342227899110E-01
   23    12 MG    4.631302137642E+00 -6.836192535700E-02 -1.469551651900E-02
   24    20 CA    1.797893984000E-02 -4.661165224600E+00 -3.701675913900E-02
   25    20 CA   -2.344237873311E+00 -2.314740761373E+00 -4.683949153054E+00
   26    12 MG   -4.232372783300E-02 -3.908702822800E-02 -4.640433227126E+00
   27    20 CA   -4.683988032137E+00 -4.689974214981E+00 -4.656755953341E+00
   28     8 O     1.153036414060E-01 -1.325816411360E-01 -2.434564368304E+00
   29     8 O     2.334246391482E+00  2.336129693259E+00 -2.327992606191E+00
   30     8 O    -2.386542908437E+00 -2.345629103813E+00 -2.335296105055E+00
   31     8 O     2.444940113429E+00 -1.062648564740E-01 -1.059253197180E-01
   32     8 O     4.678221059685E+00  2.252772549312E+00 -1.358504126700E-02
   33     8 O     1.152423017480E-01 -2.322138493058E+00 -5.056854106200E-02
   34     8 O     4.739794267334E+00 -3.383270060000E-04  2.289156014888E+00
   35     8 O     7.006584459348E+00  2.233200538675E+00  2.334380530468E+00
   36     8 O     2.343438109235E+00 -2.338793486802E+00  2.354402663831E+00
   37     8 O    -2.542716253000E-03  2.333955699597E+00 -1.576361083000E-02
   38     8 O     2.343726557218E+00  4.665315071579E+00 -2.456468004000E-02
   39     8 O    -2.322621071452E+00  6.525502594000E-03  5.498375880100E-02
   40     8 O     2.332023930399E+00  2.343337647763E+00  2.395164506394E+00
   41     8 O     4.679016750394E+00  4.776040599125E+00  2.445175803346E+00
   42     8 O    -5.816404447000E-02  1.362866178800E-02  2.371234848806E+00
   43     8 O     4.568446488704E+00  2.423360947809E+00  4.676381460092E+00
   44     8 O     7.071879801042E+00  4.654328353065E+00  4.696032888663E+00
   45     8 O     2.336470791867E+00 -3.647016166100E-02  4.687106449114E+00
   46     8 O     6.816838314000E-03  4.784911172857E+00  2.433136281068E+00
   47     8 O     2.390697903166E+00  6.998206881313E+00  2.452628366576E+00
   48     8 O    -2.340562539103E+00  2.263495742633E+00  2.339653319541E+00
   49     8 O     2.344646245526E+00  4.639969011656E+00  4.752254209862E+00
   50     8 O     4.568184089733E+00  6.880866297823E+00  4.661642748436E+00
   51     8 O     1.122613773560E-01  2.448329057332E+00  4.671356808686E+00
   52     8 O     4.575223371963E+00  4.778619435733E+00  6.902289140225E+00
   53     8 O     6.933427959237E+00  6.997866480313E+00  7.066149911809E+00
   54     8 O     2.341148862003E+00  2.432132698789E+00  6.929162716583E+00
 WARNING **** CRYSTA **** TESTGEOM  DIRECTIVE - GEOMETRY EDITING COMPLETE
 TTTTTTTTTTTTTTTTTTTTTTTTTTTTTT END         TELAPSE        0.01 TCPU        0.01
 EEEEEEEEEE TERMINATION  DATE 10 03 2023 TIME 10:31:38.2
Fri 10 Mar 2023 10:31:38 GMT
Contents of temporary directory:
total 8
-rw-r--r--  1 brunocamino  admin  4027 10 Mar 10:31 fort.34
SCF abnormal end - no wf written in fort.9
geometry input file fort.34 saved as /Users/brunocamino/Desktop/Imperial/cmsg_icl/solid-solutions/./data/crystal/testgeom_opt/CaMgO_testgeom_2877.gui
temporary directory /Users/brunocamino/crystal/tmp removed
