date Fri 10 Mar 2023 10:28:20 GMT
hostname MacBook-Pro-8
system Darwin MacBook-Pro-8 21.6.0 Darwin Kernel Version 21.6.0: Mon Aug 22 20:20:05 PDT 2022; root:xnu-8020.140.49~2/RELEASE_ARM64_T8101 arm64
user brunocamino
output data in /Users/brunocamino/Desktop/Imperial/cmsg_icl/solid-solutions/./data/crystal/testgeom_opt/CaMgO_testgeom_439.out
crystal executable in /Users/brunocamino/crystal
input data in /Users/brunocamino/Desktop/Imperial/cmsg_icl/solid-solutions/./data/crystal/testgeom_opt/CaMgO_testgeom_439.d12
temporary directory /Users/brunocamino/crystal/tmp
external geometry input from /Users/brunocamino/Desktop/Imperial/cmsg_icl/solid-solutions/./data/crystal/testgeom_opt/CaMgO_testgeom_439.gui
external geometry input saved in /Users/brunocamino/Desktop/Imperial/cmsg_icl/solid-solutions/./data/crystal/testgeom_opt/CaMgO_testgeom_439_inp.gui
Bulk 
EXTERNAL
EXTPRT
TESTGEOM
END

         
 *******************************************************************************
 *                                                                             *
 *                               CRYSTAL17                                     *
 *                      public : 1.0.1 - Feb 1st, 2017                         *
 *                       HTTP://WWW.CRYSTAL.UNITO.IT                           *
 *                                                                             *
 *                              MAIN AUTHORS                                   *
 *                                                                             *
 *  R. DOVESI(1,11), V.R. SAUNDERS(2), C. ROETTI(1,11), R. ORLANDO(1,11),      *
 *  C.M. ZICOVICH-WILSON(1,3), F. PASCALE(4), B. CIVALLERI(1,11),              *
 *  K. DOLL(5), N.M. HARRISON(2,6), I.J. BUSH(7), Ph. D'ARCO(8),               *
 *  M. LLUNELL(9), M. CAUSA'(10), Y. NOEL(8), L. MASCHIO(1,11), A. ERBA(1,11)  *
 *  M. RE'RAT(14), S. CASASSA(1,11)                                            *
 *                                                                             *
 *        CONTRIBUTIONS TO THE CODE HAVE ALSO BEEN GIVEN BY                    *
 *                                                                             *
 *  M. FERRABONE(1,11), M. DE LA PIERRE(1,11), M. FERRERO(1,11),               *
 *  J. BAIMA(1,11), E. ALBANESE(1,11), M.F. PEINTINGER(12), R. BAST(13),       *
 *  B. KIRTMAN(15), V. LACIVITA(1,11), R. DEMICHELIS(1,16)                     *
 *  G. BRANDEBURG(17), S. SALUSTRO(1,11), G. SANSONE(1,11)                     *
 *  M.T. RUGGIERO(18)                                                          *
 *                                                                             *
 * (1) THEORETICAL CHEMISTRY GROUP - UNIVERSITA' DI TORINO - TORINO (ITALY)    *

 * (2) COMPUTATIONAL SCIENCE & ENGINEERING DEPARTMENT - STFC DARESBURY (UK)    *
 * (3) UNIVERSIDAD AUTONOMA DEL ESTADO DE MORELOS - CUERNAVACA (MEXICO)        *
 * (4) UNIVERSITE' DE LORRAINE - NANCY (FRANCE)                                *
 * (5) UNIVERSITAET STUTTGART- STUTTGART (GERMANY)                             *
 * (6) IMPERIAL COLLEGE - LONDON (UK)                                          *
 * (7) OXFORD E-RESEARCH CENTRE - OXFORD (UK)                                  *
 * (8) UPMC - SORBONNE UNIVERSITES - PARIS (FRANCE)                            *
 * (9) UNIVERSIDAD DE BARCELONA - BARCELONA (SPAIN)                            *
 *(10) UNIVERSITA' DI NAPOLI "FEDERICO II" - NAPOLI (ITALY)                    *
 *(11) NIS - NANOSTRUCTURED INTERFACES AND SURFACES - TORINO (ITALY)           *
 *(12) MPI FUER CHEMISCHE ENERGIEKONVERSION - MUELHEIM AN DER RUHR (GERMANY)   *
 *(13) UNIVERSITY OF TROMSO - TROMSO (NORWAY)                                  *
 *(14) UNIVERSITE' DE PAU ET DES PAYS DE L'ADOUR - PAU (FRANCE)                *
 *(15) UNIVERSITY OF CALIFORNIA SANTA BARBARA - SANTA BARBARA (USA)            *
 *(16) CURTIN UNIVERSITY - PERTH (AUSTRALIA)                                   *
 *(17) UNIVERSITY COLLEGE LONDON - LONDON (UK)                                 *
 *(18) CAMBRIDGE UNIVERSITY - CAMBRIDGE (UK)                                   *
 *                                                                             *
 *******************************************************************************
 EEEEEEEEEE STARTING  DATE 10 03 2023 TIME 10:28:20.7
 Bulk                                                                            

 GEOMETRY INPUT FROM EXTERNAL FILE (FORTRAN UNIT 34)
 3D - CRYSTAL 

 *******************************************************************************
 LATTICE PARAMETERS  (ANGSTROMS AND DEGREES) - PRIMITIVE CELL
       A          B          C        ALPHA      BETA     GAMMA        VOLUME
    9.92282    9.91966    9.90959    59.99654  59.92003  59.91404    688.835067
 INFORMATION **** CHKGRP **** SPGR WITH NO INVERSION

 NUMBER OF IRREDUCIBLE ATOMS IN THE CELL:   54

 CARTESIAN COORDINATES (ANGSTROM) - IRREDUCIBLE ATOMS AND SYMMETRY RELATED

 AT.IRR.  AT  AT.N.          X                   Y                   Z
     1     1    20    3.939390768600E-02 -1.995307052700E-02 -3.227961656000E-03
     2     2    20    2.363109881828E+00  2.305411449632E+00 -3.322138421300E-02
     3     3    20   -2.341244866390E+00 -2.349409130621E+00 -8.193160451000E-03
     4     4    20    2.355710291746E+00 -4.119974010000E-04  2.358197789711E+00
     5     5    20    4.673317116535E+00  2.320553339468E+00  2.367300878151E+00
     6     6    20   -8.526196951000E-03 -2.328128820741E+00  2.352928996116E+00
     7     7    20   -2.331933247371E+00  6.369602050000E-03 -2.340424252302E+00
     8     8    20   -4.456641872000E-03  2.327661884359E+00 -2.361128529582E+00
     9     9    20   -4.680345891712E+00 -2.325218669767E+00 -2.330333577008E+00
    10    10    20   -5.163196888000E-03  2.328901172113E+00  2.382730819620E+00
    11    11    20    2.333527728848E+00  4.714380526022E+00  2.408752021559E+00
    12    12    20   -2.357928317306E+00  7.044585427000E-03  2.429558760801E+00
    13    13    12    2.365381815072E+00  2.252926792178E+00  4.767664256249E+00
    14    14    12    4.650351162613E+00  4.710577733902E+00  4.739938013803E+00
    15    15    12    3.822163281000E-03  2.797401199300E-02  4.711419330169E+00
    16    16    20   -2.392763242363E+00  2.366331105680E+00 -2.973741087600E-02
    17    17    20   -3.094468111000E-02  4.758223199328E+00 -1.492036052300E-02
    18    18    12   -4.735254570309E+00  7.774661804000E-03 -5.568142866200E-02
    19    19    20    5.124573571100E-02 -2.361728363653E+00 -2.356129120246E+00
    20    20    12    2.345690106100E+00 -2.026171785800E-02 -2.295763376279E+00
    21    21    12   -2.365785937477E+00 -4.733940672925E+00 -2.313583815595E+00
    22    22    12    2.380771478484E+00 -2.221615678697E+00 -1.075253115440E-01
    23    23    12    4.661297400280E+00 -2.821095804600E-02 -9.985237652800E-02
    24    24    20    1.967424175100E-02 -4.732239654579E+00 -4.822992137300E-02
    25    25    20   -2.338532737355E+00 -2.319188768923E+00 -4.719380219265E+00
    26    26    12    2.129029170400E-02  2.000258898000E-03 -4.694741780705E+00
    27    27    20   -4.679521909364E+00 -4.716948425088E+00 -4.718689001401E+00
    28    28     8    9.194306959400E-02 -3.052907228000E-03 -2.371234010165E+00
    29    29     8    2.429157987052E+00  2.241138387411E+00 -2.342503077752E+00
    30    30     8   -2.331885455186E+00 -2.403739487926E+00 -2.335805554740E+00
    31    31     8    2.422726303619E+00 -8.021152596300E-02 -8.066660743800E-02
    32    32     8    4.665441764580E+00  2.241967765521E+00 -9.666576160000E-02
    33    33     8    9.237336527100E-02 -2.339886404275E+00 -3.323017640000E-04
    34    34     8    4.773412502741E+00 -4.897567510000E-03  2.319588242762E+00
    35    35     8    7.002635048444E+00  2.238867728059E+00  2.344959185303E+00
    36    36     8    2.326468188935E+00 -2.332527033693E+00  2.279613766445E+00
    37    37     8   -3.766266462000E-03  2.344460973111E+00 -7.504743906000E-03
    38    38     8    2.337232272768E+00  4.757736820837E+00  9.431616434000E-03
    39    39     8   -2.401034803534E+00 -4.681830968000E-03  3.327832398000E-03
    40    40     8    2.331328415480E+00  2.330095482495E+00  2.385362687817E+00
    41    41     8    4.659072940943E+00  4.679085560821E+00  2.402747767826E+00
    42    42     8    8.956402977000E-03 -1.814960720000E-04  2.417720235491E+00
    43    43     8    4.575102460970E+00  2.403996133816E+00  4.689851167963E+00
    44    44     8    6.915234678134E+00  4.774791596527E+00  4.686889677026E+00
    45    45     8    2.262789282784E+00  7.397795387700E-02  4.769161138164E+00
    46    46     8    9.278249460000E-04  4.766493615143E+00  2.344907715944E+00
    47    47     8    2.225022072754E+00  7.015155897037E+00  2.374211119738E+00
    48    48     8   -2.340820821935E+00  2.339200932927E+00  2.364098122615E+00
    49    49     8    2.450210937359E+00  4.737434947585E+00  4.794395703170E+00
    50    50     8    4.655615831232E+00  7.080869046780E+00  4.792645905017E+00
    51    51     8    1.091070543800E-02  2.217522127338E+00  4.679031748394E+00
    52    52     8    4.573223824721E+00  4.791167314343E+00  6.910775845276E+00
    53    53     8    7.043320988296E+00  7.012703277874E+00  7.002634106211E+00
    54    54     8    2.340487395949E+00  2.244077779735E+00  6.888617261178E+00

 SYMMETRY CHANGED DURING OLD RUN :  INFORMATION ON SPACE GROUP LOST 
 NUMBER OF SYMMETRY OPERATORS         :    1
 *******************************************************************************
 LATTICE PARAMETERS (ANGSTROMS AND DEGREES) - BOHR = 0.5291772083 ANGSTROM
 PRIMITIVE CELL - CENTRING CODE 1/0 VOLUME=   688.835067 - DENSITY  3.295 g/cm^3
         A              B              C           ALPHA      BETA       GAMMA 
     9.92282005     9.91965837     9.90958612    59.996539  59.920026  59.914039
 *******************************************************************************
 ATOMS IN THE ASYMMETRIC UNIT   54 - ATOMS IN THE UNIT CELL:   54
     ATOM                 X/A                 Y/B                 Z/C    
 *******************************************************************************
      1 T  20 CA   -4.466990384854E-03  4.004212296538E-03  1.623826448878E-03
      2 T  20 CA   -6.731988875741E-03  1.608437039307E-03  3.356962368581E-01
      3 T  20 CA   -9.206326617529E-04  1.415709983224E-04 -3.343150003382E-01
      4 T  20 CA   -1.455301890917E-04  3.360493513344E-01  9.399554275946E-05
      5 T  20 CA    4.997120169051E-04  3.363171069040E-01  3.306259965350E-01
      6 T  20 CA    2.331672859799E-03  3.332108266727E-01 -3.345265626409E-01
      7 T  20 CA    1.394115125143E-04 -3.335125486594E-01  7.622708926428E-04
      8 T  20 CA   -2.022300550084E-03 -3.346876353947E-01  3.341502654816E-01
      9 T  20 CA    2.305416111935E-03 -3.338518541212E-01 -3.340991834656E-01
     10 T  20 CA    3.363611539494E-01  3.125079679684E-03 -4.340707792448E-03
     11 T  20 CA    3.413079421471E-01  1.496489395665E-03  3.310914854316E-01
     12 T  20 CA    3.421515388426E-01  4.397776561741E-03 -3.414410196541E-01
     13 T  12 MG    3.316731335450E-01  3.475312959789E-01 -1.048210335359E-02
     14 T  12 MG    3.417721320531E-01  3.330899546638E-01  3.300913096919E-01
     15 T  12 MG    3.376537128647E-01  3.339162119539E-01 -3.339459164565E-01
     16 T  20 CA    3.375550414545E-01 -3.417076199780E-01 -2.020727689950E-04
     17 T  20 CA    3.405084019136E-01 -3.429425822082E-01  3.381403056413E-01
     18 T  12 MG    3.348053778585E-01 -3.422665271258E-01 -3.339917084899E-01
     19 T  20 CA   -3.400971832456E-01  4.400299520238E-03  3.396013950525E-03
     20 T  12 MG   -3.326802511492E-01  5.204405728577E-03  3.300758277559E-01
     21 T  12 MG   -3.336132723616E-01  4.378767636843E-03 -3.415836905984E-01
     22 T  12 MG   -3.361642910756E-01  3.207430159116E-01  1.945907706960E-02
     23 T  12 MG   -3.420702453460E-01  3.273701661532E-01  3.383464702032E-01
     24 T  20 CA   -3.423529352034E-01  3.357850260821E-01 -3.325867515022E-01
     25 T  20 CA   -3.348740135230E-01 -3.374463196880E-01  4.231054763152E-03
     26 T  12 MG   -3.361204640099E-01 -3.330767020800E-01  3.366883835343E-01
     27 T  20 CA   -3.386278548235E-01 -3.332020189899E-01 -3.341473299600E-01
     28 T   8 O    -1.758575756367E-01 -1.621504013622E-01  1.755700193915E-01
     29 T   8 O    -1.806889817664E-01 -1.536051796553E-01 -4.993713008364E-01
     30 T   8 O    -1.714264522380E-01 -1.611310492891E-01 -1.714180916994E-01
     31 T   8 O    -1.845184721858E-01  1.727817044157E-01  1.732357430082E-01
     32 T   8 O    -1.802272759650E-01  1.658328513244E-01 -4.997082852815E-01
     33 T   8 O    -1.735049757173E-01  1.736010204049E-01 -1.602195018978E-01
     34 T   8 O    -1.759055536136E-01 -4.939369588684E-01  1.753689978248E-01
     35 T   8 O    -1.732934345500E-01 -4.933033103789E-01  4.929167863256E-01
     36 T   8 O    -1.699891872864E-01  4.948466707880E-01 -1.626813992113E-01
     37 T   8 O     1.669435807708E-01 -1.681659391423E-01  1.674394085174E-01
     38 T   8 O     1.730602596830E-01 -1.722614319586E-01 -4.943330764441E-01
     39 T   8 O     1.714000633466E-01 -1.706839115279E-01 -1.722193938074E-01
     40 T   8 O     1.697473649152E-01  1.698789399992E-01  1.625905717824E-01
     41 T   8 O     1.722577860594E-01  1.694591944562E-01  4.952546136979E-01
     42 T   8 O     1.717345729885E-01  1.728896767073E-01 -1.719047529509E-01
     43 T   8 O     1.790675172770E-01  4.888132192693E-01  1.638140148820E-01
     44 T   8 O     1.807975760525E-01  4.862709391656E-01 -4.996295503243E-01
     45 T   8 O     1.837025005079E-01  4.958678145496E-01 -1.732943524037E-01
     46 T   8 O    -4.929188358125E-01 -1.731459785072E-01  1.726077452760E-01
     47 T   8 O    -4.893107727407E-01 -1.729475394208E-01  4.898574719266E-01
     48 T   8 O    -4.974057392156E-01 -1.655297123845E-01 -1.692509322275E-01
     49 T   8 O    -4.952818929464E-01  1.781259870718E-01  1.708339169411E-01
     50 T   8 O    -4.857938272807E-01  1.680137527102E-01  4.957213166436E-01
     51 T   8 O     4.909992266655E-01  1.758105240802E-01 -1.750009784268E-01
     52 T   8 O    -4.921870792063E-01  4.764858481643E-01  1.754098193995E-01
     53 T   8 O     4.963755189616E-01 -4.993765655515E-01 -4.961521652066E-01
     54 T   8 O     4.840473952036E-01  4.974836486730E-01 -1.642471176765E-01

 T = ATOM BELONGING TO THE ASYMMETRIC UNIT
 *******************************************************************************
 * GEOMETRY EDITING - INPUT COORDINATES ARE GIVEN IN ANGSTROM         
 *******************************************************************************

 GCALCO - MAX INDICES DIRECT LATTICE VECTOR    14    14    14
 NO.OF VECTORS CREATED 6999 STARS 3500 RMAX   198.34036 BOHR

 GEOMETRY FOR WAVE FUNCTION - DIMENSIONALITY OF THE SYSTEM    3
 (NON PERIODIC DIRECTION: LATTICE PARAMETER FORMALLY SET TO 500)
 *******************************************************************************
 LATTICE PARAMETERS (ANGSTROMS AND DEGREES) - BOHR = 0.5291772083 ANGSTROM
 PRIMITIVE CELL - CENTRING CODE 1/0 VOLUME=   688.835067 - DENSITY  3.295 g/cm^3
         A              B              C           ALPHA      BETA       GAMMA 
     9.92282005     9.91965837     9.90958612    59.996539  59.920026  59.914039
 *******************************************************************************
 ATOMS IN THE ASYMMETRIC UNIT   54 - ATOMS IN THE UNIT CELL:   54
     ATOM                 X/A                 Y/B                 Z/C    
 *******************************************************************************
      1 T  20 CA   -4.466990384854E-03  4.004212296538E-03  1.623826448878E-03
      2 T  20 CA   -6.731988875741E-03  1.608437039307E-03  3.356962368581E-01
      3 T  20 CA   -9.206326617528E-04  1.415709983223E-04 -3.343150003382E-01
      4 T  20 CA   -1.455301890917E-04  3.360493513344E-01  9.399554275946E-05
      5 T  20 CA    4.997120169049E-04  3.363171069040E-01  3.306259965350E-01
      6 T  20 CA    2.331672859799E-03  3.332108266727E-01 -3.345265626409E-01
      7 T  20 CA    1.394115125143E-04 -3.335125486594E-01  7.622708926427E-04
      8 T  20 CA   -2.022300550084E-03 -3.346876353947E-01  3.341502654816E-01
      9 T  20 CA    2.305416111935E-03 -3.338518541212E-01 -3.340991834656E-01
     10 T  20 CA    3.363611539494E-01  3.125079679684E-03 -4.340707792448E-03
     11 T  20 CA    3.413079421471E-01  1.496489395665E-03  3.310914854316E-01
     12 T  20 CA    3.421515388426E-01  4.397776561741E-03 -3.414410196541E-01
     13 T  12 MG    3.316731335450E-01  3.475312959789E-01 -1.048210335359E-02
     14 T  12 MG    3.417721320531E-01  3.330899546638E-01  3.300913096919E-01
     15 T  12 MG    3.376537128647E-01  3.339162119539E-01 -3.339459164565E-01
     16 T  20 CA    3.375550414545E-01 -3.417076199780E-01 -2.020727689950E-04
     17 T  20 CA    3.405084019136E-01 -3.429425822082E-01  3.381403056413E-01
     18 T  12 MG    3.348053778585E-01 -3.422665271258E-01 -3.339917084899E-01
     19 T  20 CA   -3.400971832456E-01  4.400299520238E-03  3.396013950525E-03
     20 T  12 MG   -3.326802511492E-01  5.204405728577E-03  3.300758277559E-01
     21 T  12 MG   -3.336132723616E-01  4.378767636843E-03 -3.415836905984E-01
     22 T  12 MG   -3.361642910756E-01  3.207430159116E-01  1.945907706960E-02
     23 T  12 MG   -3.420702453460E-01  3.273701661532E-01  3.383464702032E-01
     24 T  20 CA   -3.423529352034E-01  3.357850260821E-01 -3.325867515022E-01
     25 T  20 CA   -3.348740135230E-01 -3.374463196880E-01  4.231054763152E-03
     26 T  12 MG   -3.361204640099E-01 -3.330767020800E-01  3.366883835343E-01
     27 T  20 CA   -3.386278548235E-01 -3.332020189899E-01 -3.341473299600E-01
     28 T   8 O    -1.758575756367E-01 -1.621504013622E-01  1.755700193915E-01
     29 T   8 O    -1.806889817664E-01 -1.536051796553E-01 -4.993713008364E-01
     30 T   8 O    -1.714264522380E-01 -1.611310492891E-01 -1.714180916994E-01
     31 T   8 O    -1.845184721858E-01  1.727817044157E-01  1.732357430082E-01
     32 T   8 O    -1.802272759650E-01  1.658328513244E-01 -4.997082852815E-01
     33 T   8 O    -1.735049757173E-01  1.736010204049E-01 -1.602195018978E-01
     34 T   8 O    -1.759055536136E-01 -4.939369588684E-01  1.753689978248E-01
     35 T   8 O    -1.732934345500E-01 -4.933033103789E-01  4.929167863256E-01
     36 T   8 O    -1.699891872864E-01  4.948466707880E-01 -1.626813992113E-01
     37 T   8 O     1.669435807708E-01 -1.681659391423E-01  1.674394085174E-01
     38 T   8 O     1.730602596830E-01 -1.722614319586E-01 -4.943330764441E-01
     39 T   8 O     1.714000633466E-01 -1.706839115279E-01 -1.722193938074E-01
     40 T   8 O     1.697473649152E-01  1.698789399992E-01  1.625905717824E-01
     41 T   8 O     1.722577860594E-01  1.694591944562E-01  4.952546136979E-01
     42 T   8 O     1.717345729885E-01  1.728896767073E-01 -1.719047529509E-01
     43 T   8 O     1.790675172770E-01  4.888132192693E-01  1.638140148820E-01
     44 T   8 O     1.807975760525E-01  4.862709391656E-01 -4.996295503243E-01
     45 T   8 O     1.837025005079E-01  4.958678145496E-01 -1.732943524037E-01
     46 T   8 O    -4.929188358125E-01 -1.731459785072E-01  1.726077452760E-01
     47 T   8 O    -4.893107727407E-01 -1.729475394208E-01  4.898574719266E-01
     48 T   8 O    -4.974057392156E-01 -1.655297123845E-01 -1.692509322275E-01
     49 T   8 O    -4.952818929464E-01  1.781259870718E-01  1.708339169411E-01
     50 T   8 O    -4.857938272807E-01  1.680137527102E-01  4.957213166436E-01
     51 T   8 O     4.909992266655E-01  1.758105240802E-01 -1.750009784268E-01
     52 T   8 O    -4.921870792063E-01  4.764858481643E-01  1.754098193995E-01
     53 T   8 O     4.963755189616E-01 -4.993765655515E-01 -4.961521652066E-01
     54 T   8 O     4.840473952036E-01  4.974836486730E-01 -1.642471176765E-01

 T = ATOM BELONGING TO THE ASYMMETRIC UNIT

 ****    1 SYMMOPS - TRANSLATORS IN FRACTIONAL UNITS
 **** MATRICES AND TRANSLATORS IN THE CRYSTALLOGRAPHIC REFERENCE FRAME
   V INV                    ROTATION MATRICES                   TRANSLATORS
   1   1  1.00  0.00  0.00  0.00  1.00  0.00  0.00  0.00  1.00  0.00  0.00  0.00

 DIRECT LATTICE VECTORS CARTESIAN COMPONENTS (ANGSTROM)
          X                    Y                    Z
   0.995145729705E-02   0.701425305649E+01   0.701872586946E+01
   0.700805757575E+01  -0.148647347668E-03   0.702045235493E+01
   0.700605070096E+01   0.700821547566E+01   0.815214578314E-02


 CARTESIAN COORDINATES - PRIMITIVE CELL
 *******************************************************************************
 *      ATOM          X(ANGSTROM)         Y(ANGSTROM)         Z(ANGSTROM)
 *******************************************************************************
    1    20 CA    3.939390768600E-02 -1.995307052700E-02 -3.227961656000E-03
    2    20 CA    2.363109881828E+00  2.305411449632E+00 -3.322138421300E-02
    3    20 CA   -2.341244866390E+00 -2.349409130621E+00 -8.193160451000E-03
    4    20 CA    2.355710291746E+00 -4.119974009998E-04  2.358197789711E+00
    5    20 CA    4.673317116535E+00  2.320553339468E+00  2.367300878151E+00
    6    20 CA   -8.526196950999E-03 -2.328128820741E+00  2.352928996116E+00
    7    20 CA   -2.331933247371E+00  6.369602050000E-03 -2.340424252302E+00
    8    20 CA   -4.456641872000E-03  2.327661884359E+00 -2.361128529582E+00
    9    20 CA   -4.680345891712E+00 -2.325218669767E+00 -2.330333577008E+00
   10    20 CA   -5.163196888000E-03  2.328901172113E+00  2.382730819620E+00
   11    20 CA    2.333527728848E+00  4.714380526022E+00  2.408752021559E+00
   12    20 CA   -2.357928317306E+00  7.044585427000E-03  2.429558760801E+00
   13    12 MG    2.365381815072E+00  2.252926792178E+00  4.767664256249E+00
   14    12 MG    4.650351162613E+00  4.710577733902E+00  4.739938013803E+00
   15    12 MG    3.822163281001E-03  2.797401199300E-02  4.711419330169E+00
   16    20 CA   -2.392763242363E+00  2.366331105680E+00 -2.973741087600E-02
   17    20 CA   -3.094468111000E-02  4.758223199328E+00 -1.492036052300E-02
   18    12 MG   -4.735254570309E+00  7.774661804000E-03 -5.568142866200E-02
   19    20 CA    5.124573571100E-02 -2.361728363653E+00 -2.356129120246E+00
   20    12 MG    2.345690106100E+00 -2.026171785800E-02 -2.295763376279E+00
   21    12 MG   -2.365785937477E+00 -4.733940672925E+00 -2.313583815595E+00
   22    12 MG    2.380771478484E+00 -2.221615678697E+00 -1.075253115440E-01
   23    12 MG    4.661297400280E+00 -2.821095804600E-02 -9.985237652800E-02
   24    20 CA    1.967424175100E-02 -4.732239654579E+00 -4.822992137300E-02
   25    20 CA   -2.338532737355E+00 -2.319188768923E+00 -4.719380219265E+00
   26    12 MG    2.129029170400E-02  2.000258898000E-03 -4.694741780705E+00
   27    20 CA   -4.679521909364E+00 -4.716948425088E+00 -4.718689001401E+00
   28     8 O     9.194306959400E-02 -3.052907228000E-03 -2.371234010165E+00
   29     8 O     2.429157987052E+00  2.241138387411E+00 -2.342503077752E+00
   30     8 O    -2.331885455186E+00 -2.403739487926E+00 -2.335805554740E+00
   31     8 O     2.422726303619E+00 -8.021152596300E-02 -8.066660743800E-02
   32     8 O     4.665441764580E+00  2.241967765521E+00 -9.666576160000E-02
   33     8 O     9.237336527100E-02 -2.339886404275E+00 -3.323017640001E-04
   34     8 O     4.773412502741E+00 -4.897567510000E-03  2.319588242762E+00
   35     8 O     7.002635048444E+00  2.238867728059E+00  2.344959185303E+00
   36     8 O     2.326468188935E+00 -2.332527033693E+00  2.279613766445E+00
   37     8 O    -3.766266462000E-03  2.344460973111E+00 -7.504743906000E-03
   38     8 O     2.337232272768E+00  4.757736820837E+00  9.431616434000E-03
   39     8 O    -2.401034803534E+00 -4.681830968000E-03  3.327832398000E-03
   40     8 O     2.331328415480E+00  2.330095482495E+00  2.385362687817E+00
   41     8 O     4.659072940943E+00  4.679085560821E+00  2.402747767826E+00
   42     8 O     8.956402977000E-03 -1.814960720001E-04  2.417720235491E+00
   43     8 O     4.575102460970E+00  2.403996133816E+00  4.689851167963E+00
   44     8 O     6.915234678134E+00  4.774791596527E+00  4.686889677026E+00
   45     8 O     2.262789282784E+00  7.397795387700E-02  4.769161138164E+00
   46     8 O     9.278249459997E-04  4.766493615143E+00  2.344907715944E+00
   47     8 O     2.225022072754E+00  7.015155897037E+00  2.374211119738E+00
   48     8 O    -2.340820821935E+00  2.339200932927E+00  2.364098122615E+00
   49     8 O     2.450210937359E+00  4.737434947585E+00  4.794395703170E+00
   50     8 O     4.655615831232E+00  7.080869046780E+00  4.792645905017E+00
   51     8 O     1.091070543800E-02  2.217522127338E+00  4.679031748394E+00
   52     8 O     4.573223824721E+00  4.791167314343E+00  6.910775845276E+00
   53     8 O     7.043320988296E+00  7.012703277874E+00  7.002634106211E+00
   54     8 O     2.340487395949E+00  2.244077779735E+00  6.888617261178E+00
 WARNING **** CRYSTA **** TESTGEOM  DIRECTIVE - GEOMETRY EDITING COMPLETE
 TTTTTTTTTTTTTTTTTTTTTTTTTTTTTT END         TELAPSE        0.01 TCPU        0.01
 EEEEEEEEEE TERMINATION  DATE 10 03 2023 TIME 10:28:20.7
Fri 10 Mar 2023 10:28:20 GMT
Contents of temporary directory:
total 8
-rw-r--r--  1 brunocamino  admin  4027 10 Mar 10:28 fort.34
SCF abnormal end - no wf written in fort.9
geometry input file fort.34 saved as /Users/brunocamino/Desktop/Imperial/cmsg_icl/solid-solutions/./data/crystal/testgeom_opt/CaMgO_testgeom_439.gui
temporary directory /Users/brunocamino/crystal/tmp removed
