date Fri 10 Mar 2023 10:30:50 GMT
hostname MacBook-Pro-8
system Darwin MacBook-Pro-8 21.6.0 Darwin Kernel Version 21.6.0: Mon Aug 22 20:20:05 PDT 2022; root:xnu-8020.140.49~2/RELEASE_ARM64_T8101 arm64
user brunocamino
output data in /Users/brunocamino/Desktop/Imperial/cmsg_icl/solid-solutions/./data/crystal/testgeom_opt/CaMgO_testgeom_2288.out
crystal executable in /Users/brunocamino/crystal
input data in /Users/brunocamino/Desktop/Imperial/cmsg_icl/solid-solutions/./data/crystal/testgeom_opt/CaMgO_testgeom_2288.d12
temporary directory /Users/brunocamino/crystal/tmp
external geometry input from /Users/brunocamino/Desktop/Imperial/cmsg_icl/solid-solutions/./data/crystal/testgeom_opt/CaMgO_testgeom_2288.gui
external geometry input saved in /Users/brunocamino/Desktop/Imperial/cmsg_icl/solid-solutions/./data/crystal/testgeom_opt/CaMgO_testgeom_2288_inp.gui
Bulk 
EXTERNAL
EXTPRT
TESTGEOM
END

         
 *******************************************************************************
 *                                                                             *
 *                               CRYSTAL17                                     *
 *                      public : 1.0.1 - Feb 1st, 2017                         *
 *                       HTTP://WWW.CRYSTAL.UNITO.IT                           *
 *                                                                             *
 *                              MAIN AUTHORS                                   *
 *                                                                             *
 *  R. DOVESI(1,11), V.R. SAUNDERS(2), C. ROETTI(1,11), R. ORLANDO(1,11),      *
 *  C.M. ZICOVICH-WILSON(1,3), F. PASCALE(4), B. CIVALLERI(1,11),              *
 *  K. DOLL(5), N.M. HARRISON(2,6), I.J. BUSH(7), Ph. D'ARCO(8),               *
 *  M. LLUNELL(9), M. CAUSA'(10), Y. NOEL(8), L. MASCHIO(1,11), A. ERBA(1,11)  *
 *  M. RE'RAT(14), S. CASASSA(1,11)                                            *
 *                                                                             *
 *        CONTRIBUTIONS TO THE CODE HAVE ALSO BEEN GIVEN BY                    *
 *                                                                             *
 *  M. FERRABONE(1,11), M. DE LA PIERRE(1,11), M. FERRERO(1,11),               *
 *  J. BAIMA(1,11), E. ALBANESE(1,11), M.F. PEINTINGER(12), R. BAST(13),       *
 *  B. KIRTMAN(15), V. LACIVITA(1,11), R. DEMICHELIS(1,16)                     *
 *  G. BRANDEBURG(17), S. SALUSTRO(1,11), G. SANSONE(1,11)                     *
 *  M.T. RUGGIERO(18)                                                          *
 *                                                                             *
 * (1) THEORETICAL CHEMISTRY GROUP - UNIVERSITA' DI TORINO - TORINO (ITALY)    *

 * (2) COMPUTATIONAL SCIENCE & ENGINEERING DEPARTMENT - STFC DARESBURY (UK)    *
 * (3) UNIVERSIDAD AUTONOMA DEL ESTADO DE MORELOS - CUERNAVACA (MEXICO)        *
 * (4) UNIVERSITE' DE LORRAINE - NANCY (FRANCE)                                *
 * (5) UNIVERSITAET STUTTGART- STUTTGART (GERMANY)                             *
 * (6) IMPERIAL COLLEGE - LONDON (UK)                                          *
 * (7) OXFORD E-RESEARCH CENTRE - OXFORD (UK)                                  *
 * (8) UPMC - SORBONNE UNIVERSITES - PARIS (FRANCE)                            *
 * (9) UNIVERSIDAD DE BARCELONA - BARCELONA (SPAIN)                            *
 *(10) UNIVERSITA' DI NAPOLI "FEDERICO II" - NAPOLI (ITALY)                    *
 *(11) NIS - NANOSTRUCTURED INTERFACES AND SURFACES - TORINO (ITALY)           *
 *(12) MPI FUER CHEMISCHE ENERGIEKONVERSION - MUELHEIM AN DER RUHR (GERMANY)   *
 *(13) UNIVERSITY OF TROMSO - TROMSO (NORWAY)                                  *
 *(14) UNIVERSITE' DE PAU ET DES PAYS DE L'ADOUR - PAU (FRANCE)                *
 *(15) UNIVERSITY OF CALIFORNIA SANTA BARBARA - SANTA BARBARA (USA)            *
 *(16) CURTIN UNIVERSITY - PERTH (AUSTRALIA)                                   *
 *(17) UNIVERSITY COLLEGE LONDON - LONDON (UK)                                 *
 *(18) CAMBRIDGE UNIVERSITY - CAMBRIDGE (UK)                                   *
 *                                                                             *
 *******************************************************************************
 EEEEEEEEEE STARTING  DATE 10 03 2023 TIME 10:30:50.7
 Bulk                                                                            

 GEOMETRY INPUT FROM EXTERNAL FILE (FORTRAN UNIT 34)
 3D - CRYSTAL 

 *******************************************************************************
 LATTICE PARAMETERS  (ANGSTROMS AND DEGREES) - PRIMITIVE CELL
       A          B          C        ALPHA      BETA     GAMMA        VOLUME
    9.89750    9.91798    9.90191    59.93236  60.07338  60.04843    687.589531
 INFORMATION **** CHKGRP **** SPGR WITH NO INVERSION

 NUMBER OF IRREDUCIBLE ATOMS IN THE CELL:   54

 CARTESIAN COORDINATES (ANGSTROM) - IRREDUCIBLE ATOMS AND SYMMETRY RELATED

 AT.IRR.  AT  AT.N.          X                   Y                   Z
     1     1    20   -2.120345734300E-02  8.466529235000E-03 -1.638778467000E-02
     2     2    20    2.361244999786E+00  2.325373250467E+00  3.850445130000E-03
     3     3    20   -2.342158981011E+00 -2.306684194527E+00 -1.308019888800E-02
     4     4    20    2.393409582491E+00 -4.605129375700E-02  2.388688767785E+00
     5     5    20    4.698982995023E+00  2.316045380191E+00  2.336951758023E+00
     6     6    20    5.856657676000E-03 -2.337834474368E+00  2.346645187503E+00
     7     7    20   -2.330601727845E+00 -2.488471245500E-02 -2.363734872633E+00
     8     8    20    3.577459310000E-03  2.354261745650E+00 -2.344760983100E+00
     9     9    12   -4.640741908756E+00 -2.408466653695E+00 -2.469539392622E+00
    10    10    20   -4.715452202400E-02  2.356367646947E+00  2.372031095206E+00
    11    11    20    2.316733117971E+00  4.726468564780E+00  2.357090370550E+00
    12    12    12   -2.336699835547E+00 -4.874166615000E-03  2.299579111716E+00
    13    13    20    2.375481188204E+00  2.378903557948E+00  4.712255573109E+00
    14    14    12    4.683990624429E+00  4.709990387698E+00  4.675657983189E+00
    15    15    20   -4.261891140800E-02 -3.826932649300E-02  4.682253175852E+00
    16    16    12   -2.376016460096E+00  2.314936866119E+00  7.164956086600E-02
    17    17    20   -8.026113093700E-02  4.668510789426E+00  3.008370016900E-02
    18    18    20   -4.691215711304E+00  2.209332260000E-02  1.024417730100E-02
    19    19    12   -2.902066636400E-02 -2.279865516279E+00 -2.347561585098E+00
    20    20    20    2.356880537981E+00 -3.848273632000E-03 -2.383797135317E+00
    21    21    20   -2.360377392447E+00 -4.661352678697E+00 -2.410506220243E+00
    22    22    20    2.392178658472E+00 -2.339679293023E+00 -2.338908679000E-03
    23    23    12    4.707941543972E+00 -5.710456763100E-02  6.015123341600E-02
    24    24    20    7.740495544000E-03 -4.680293907285E+00  2.382301526300E-02
    25    25    12   -2.355275032576E+00 -2.309659053215E+00 -4.702778149496E+00
    26    26    12   -5.782329037000E-02  6.103491265000E-03 -4.692978730100E+00
    27    27    12   -4.603789918624E+00 -4.725952245524E+00 -4.676506566721E+00
    28    28     8   -1.501278787700E-02 -8.104300920100E-02 -2.434032660763E+00
    29    29     8    2.347905705558E+00  2.441368411458E+00 -2.417811934320E+00
    30    30     8   -2.317011399936E+00 -2.334989474685E+00 -2.397335280818E+00
    31    31     8    2.408830969740E+00 -1.194378173000E-03 -1.076395652500E-02
    32    32     8    4.678423374017E+00  2.268442523788E+00 -6.660482654000E-03
    33    33     8   -3.691425218000E-03 -2.326989125042E+00 -4.824061656500E-02
    34    34     8    4.762003950827E+00 -9.705343198700E-02  2.249882442350E+00
    35    35     8    7.087231368268E+00  2.238322912647E+00  2.333963761818E+00
    36    36     8    2.438348808018E+00 -2.429781388239E+00  2.402122354152E+00
    37    37     8   -5.921713674000E-02  2.331923605900E+00  2.281915081200E-02
    38    38     8    2.348393944585E+00  4.662225525110E+00  6.007288787000E-03
    39    39     8   -2.336704490246E+00  8.027729540700E-02  6.672488312100E-02
    40    40     8    2.354653139020E+00  2.339945311317E+00  2.373039067906E+00
    41    41     8    4.680520924367E+00  4.751623560202E+00  2.408037370359E+00
    42    42     8   -4.675947040100E-02 -5.122521230000E-04  2.368703056966E+00
    43    43     8    4.688728311728E+00  2.413144571045E+00  4.726945222191E+00
    44    44     8    7.002250468911E+00  4.649790934127E+00  4.675787167587E+00
    45    45     8    2.341111692837E+00 -7.992562150000E-02  4.680742462238E+00
    46    46     8   -1.366553508720E-01  4.756509964935E+00  2.407309452390E+00
    47    47     8    2.343854814822E+00  7.098658808903E+00  2.317818197752E+00
    48    48     8   -2.427437463459E+00  2.282432006158E+00  2.223649512507E+00
    49    49     8    2.344020285422E+00  4.676794520969E+00  4.661494046863E+00
    50    50     8    4.671298102881E+00  6.875701541429E+00  4.636423534128E+00
    51    51     8   -1.827659024000E-03  2.403559766437E+00  4.678505204311E+00
    52    52     8    4.670779359384E+00  4.683620699952E+00  7.010401506978E+00
    53    53     8    6.907635257359E+00  6.974975780761E+00  7.076057167104E+00
    54    54     8    2.452015360882E+00  2.334167658421E+00  7.088218709354E+00

 SYMMETRY CHANGED DURING OLD RUN :  INFORMATION ON SPACE GROUP LOST 
 NUMBER OF SYMMETRY OPERATORS         :    1
 *******************************************************************************
 LATTICE PARAMETERS (ANGSTROMS AND DEGREES) - BOHR = 0.5291772083 ANGSTROM
 PRIMITIVE CELL - CENTRING CODE 1/0 VOLUME=   687.589531 - DENSITY  3.301 g/cm^3
         A              B              C           ALPHA      BETA       GAMMA 
     9.89750174     9.91798379     9.90191098    59.932360  60.073382  60.048432
 *******************************************************************************
 ATOMS IN THE ASYMMETRIC UNIT   54 - ATOMS IN THE UNIT CELL:   54
     ATOM                 X/A                 Y/B                 Z/C    
 *******************************************************************************
      1 T  20 CA    9.440670663305E-04 -3.282835286234E-03  2.623840082334E-04
      2 T  20 CA   -1.620180222254E-03  2.091170458806E-03  3.344399797392E-01
      3 T  20 CA    9.379341943663E-04 -2.727427756027E-03 -3.310830076681E-01
      4 T  20 CA   -3.058041059157E-03  3.440092875107E-01 -3.078010652204E-03
      5 T  20 CA   -2.060698681789E-03  3.355491574898E-01  3.339838094083E-01
      6 T  20 CA    1.077417470559E-04  3.349209090989E-01 -3.342668876978E-01
      7 T  20 CA   -4.700992759942E-03 -3.326913324387E-01  7.074942640688E-04
      8 T  20 CA    5.293500001943E-04 -3.352891726598E-01  3.359797668878E-01
      9 T  12 MG   -1.816201120749E-02 -3.342621032633E-01 -3.269657098492E-01
     10 T  20 CA    3.412105266676E-01 -2.483559612262E-03 -4.322603931083E-03
     11 T  20 CA    3.412568518829E-01 -4.741431051163E-03  3.348449763876E-01
     12 T  12 MG    3.302624434194E-01 -1.805699939576E-03 -3.313110479036E-01
     13 T  20 CA    3.375122848542E-01  3.352456114686E-01  3.048449641039E-03
     14 T  12 MG    3.371656002809E-01  3.302905702582E-01  3.370220835774E-01
     15 T  20 CA    3.347506965295E-01  3.338034741324E-01 -3.401429602788E-01
     16 T  12 MG    3.397283640062E-01 -3.293481884033E-01 -9.197815879223E-03
     17 T  20 CA    3.415420311356E-01 -3.371720168281E-01  3.258278481659E-01
     18 T  20 CA    3.362844012423E-01 -3.345948934998E-01 -3.339166881197E-01
     19 T  12 MG   -3.285717214043E-01 -6.656546287423E-03  2.607700331277E-03
     20 T  20 CA   -3.383382318369E-01 -2.144637509386E-03  3.381417883628E-01
     21 T  20 CA   -3.373111159160E-01 -6.828162354447E-03 -3.294904626845E-01
     22 T  20 CA   -3.376965845394E-01  3.372117338697E-01  3.632997284815E-03
     23 T  12 MG   -3.349492218411E-01  3.433097429984E-01  3.275806145790E-01
     24 T  20 CA   -3.333708478669E-01  3.367011939135E-01 -3.356947152020E-01
     25 T  12 MG   -3.333246037788E-01 -3.380799917731E-01  2.666236233301E-03
     26 T  12 MG   -3.306652482646E-01 -3.394160022395E-01  3.314421453294E-01
     27 T  12 MG   -3.440766687002E-01 -3.235047795301E-01 -3.323793244855E-01
     28 T   8 O    -1.785859184443E-01 -1.689564671358E-01  1.669534162136E-01
     29 T   8 O    -1.653584353537E-01 -1.799437755028E-01 -4.852863403786E-01
     30 T   8 O    -1.731820540711E-01 -1.690435040707E-01 -1.610487651516E-01
     31 T   8 O    -1.723419440160E-01  1.706887165136E-01  1.725770663187E-01
     32 T   8 O    -1.714029119829E-01  1.702603841726E-01  4.964746476701E-01
     33 T   8 O    -1.695032977065E-01  1.625802501719E-01 -1.631508933810E-01
     34 T   8 O    -1.852414997386E-01 -4.937417450811E-01  1.722112200062E-01
     35 T   8 O    -1.778517109011E-01 -4.892029366204E-01  4.990666107923E-01
     36 T   8 O    -1.756735769322E-01 -4.814953166924E-01 -1.712186950078E-01
     37 T   8 O     1.725186794383E-01 -1.692223089984E-01  1.608298462504E-01
     38 T   8 O     1.664740112504E-01 -1.656590693161E-01 -4.995936746196E-01
     39 T   8 O     1.768568491310E-01 -1.672155594621E-01 -1.657735599930E-01
     40 T   8 O     1.691210360892E-01  1.696336598430E-01  1.658241411485E-01
     41 T   8 O     1.784128888827E-01  1.652632392986E-01 -4.983156505323E-01
     42 T   8 O     1.724879721448E-01  1.657281130917E-01 -1.725257391376E-01
     43 T   8 O     1.763259436555E-01  4.984182534122E-01  1.695199014115E-01
     44 T   8 O     1.678322667031E-01  4.995295261038E-01  4.981404523482E-01
     45 T   8 O     1.619646418853E-01 -4.937418807055E-01 -1.729100429949E-01
     46 T   8 O    -4.783490071317E-01 -1.778461807193E-01  1.583327246269E-01
     47 T   8 O    -4.939281667515E-01 -1.751292726387E-01 -4.908517793019E-01
     48 T   8 O     4.947825071729E-01 -1.771283275459E-01 -1.688679523456E-01
     49 T   8 O    -4.996333463882E-01  1.651795856209E-01  1.686808324997E-01
     50 T   8 O     4.900597198492E-01  1.718277738166E-01  4.937224418553E-01
     51 T   8 O    -4.938925935166E-01  1.619465996634E-01 -1.624233297626E-01
     52 T   8 O    -4.970086315669E-01  4.978299850444E-01  1.674671553035E-01
     53 T   8 O    -4.877900979561E-01  4.979127519017E-01  4.861855461257E-01
     54 T   8 O     4.985805513088E-01 -4.865765649300E-01 -1.643586198112E-01

 T = ATOM BELONGING TO THE ASYMMETRIC UNIT
 *******************************************************************************
 * GEOMETRY EDITING - INPUT COORDINATES ARE GIVEN IN ANGSTROM         
 *******************************************************************************

 GCALCO - MAX INDICES DIRECT LATTICE VECTOR    15    14    15
 NO.OF VECTORS CREATED 6999 STARS 3500 RMAX   198.20373 BOHR

 GEOMETRY FOR WAVE FUNCTION - DIMENSIONALITY OF THE SYSTEM    3
 (NON PERIODIC DIRECTION: LATTICE PARAMETER FORMALLY SET TO 500)
 *******************************************************************************
 LATTICE PARAMETERS (ANGSTROMS AND DEGREES) - BOHR = 0.5291772083 ANGSTROM
 PRIMITIVE CELL - CENTRING CODE 1/0 VOLUME=   687.589531 - DENSITY  3.301 g/cm^3
         A              B              C           ALPHA      BETA       GAMMA 
     9.89750174     9.91798379     9.90191098    59.932360  60.073382  60.048432
 *******************************************************************************
 ATOMS IN THE ASYMMETRIC UNIT   54 - ATOMS IN THE UNIT CELL:   54
     ATOM                 X/A                 Y/B                 Z/C    
 *******************************************************************************
      1 T  20 CA    9.440670663305E-04 -3.282835286234E-03  2.623840082334E-04
      2 T  20 CA   -1.620180222254E-03  2.091170458806E-03  3.344399797392E-01
      3 T  20 CA    9.379341943664E-04 -2.727427756027E-03 -3.310830076681E-01
      4 T  20 CA   -3.058041059157E-03  3.440092875107E-01 -3.078010652204E-03
      5 T  20 CA   -2.060698681789E-03  3.355491574898E-01  3.339838094083E-01
      6 T  20 CA    1.077417470558E-04  3.349209090989E-01 -3.342668876978E-01
      7 T  20 CA   -4.700992759942E-03 -3.326913324387E-01  7.074942640687E-04
      8 T  20 CA    5.293500001944E-04 -3.352891726598E-01  3.359797668878E-01
      9 T  12 MG   -1.816201120749E-02 -3.342621032633E-01 -3.269657098492E-01
     10 T  20 CA    3.412105266676E-01 -2.483559612262E-03 -4.322603931083E-03
     11 T  20 CA    3.412568518829E-01 -4.741431051164E-03  3.348449763876E-01
     12 T  12 MG    3.302624434194E-01 -1.805699939576E-03 -3.313110479036E-01
     13 T  20 CA    3.375122848542E-01  3.352456114686E-01  3.048449641040E-03
     14 T  12 MG    3.371656002809E-01  3.302905702582E-01  3.370220835774E-01
     15 T  20 CA    3.347506965295E-01  3.338034741324E-01 -3.401429602788E-01
     16 T  12 MG    3.397283640062E-01 -3.293481884033E-01 -9.197815879223E-03
     17 T  20 CA    3.415420311356E-01 -3.371720168281E-01  3.258278481659E-01
     18 T  20 CA    3.362844012423E-01 -3.345948934998E-01 -3.339166881197E-01
     19 T  12 MG   -3.285717214043E-01 -6.656546287423E-03  2.607700331277E-03
     20 T  20 CA   -3.383382318369E-01 -2.144637509386E-03  3.381417883628E-01
     21 T  20 CA   -3.373111159160E-01 -6.828162354447E-03 -3.294904626845E-01
     22 T  20 CA   -3.376965845394E-01  3.372117338697E-01  3.632997284815E-03
     23 T  12 MG   -3.349492218411E-01  3.433097429984E-01  3.275806145790E-01
     24 T  20 CA   -3.333708478669E-01  3.367011939135E-01 -3.356947152020E-01
     25 T  12 MG   -3.333246037788E-01 -3.380799917731E-01  2.666236233300E-03
     26 T  12 MG   -3.306652482646E-01 -3.394160022395E-01  3.314421453294E-01
     27 T  12 MG   -3.440766687002E-01 -3.235047795301E-01 -3.323793244855E-01
     28 T   8 O    -1.785859184443E-01 -1.689564671358E-01  1.669534162136E-01
     29 T   8 O    -1.653584353537E-01 -1.799437755028E-01 -4.852863403786E-01
     30 T   8 O    -1.731820540711E-01 -1.690435040707E-01 -1.610487651516E-01
     31 T   8 O    -1.723419440160E-01  1.706887165136E-01  1.725770663187E-01
     32 T   8 O    -1.714029119829E-01  1.702603841726E-01  4.964746476701E-01
     33 T   8 O    -1.695032977065E-01  1.625802501719E-01 -1.631508933810E-01
     34 T   8 O    -1.852414997386E-01 -4.937417450811E-01  1.722112200062E-01
     35 T   8 O    -1.778517109011E-01 -4.892029366204E-01  4.990666107923E-01
     36 T   8 O    -1.756735769322E-01 -4.814953166924E-01 -1.712186950078E-01
     37 T   8 O     1.725186794383E-01 -1.692223089984E-01  1.608298462504E-01
     38 T   8 O     1.664740112504E-01 -1.656590693161E-01 -4.995936746196E-01
     39 T   8 O     1.768568491310E-01 -1.672155594621E-01 -1.657735599930E-01
     40 T   8 O     1.691210360892E-01  1.696336598430E-01  1.658241411485E-01
     41 T   8 O     1.784128888827E-01  1.652632392986E-01 -4.983156505323E-01
     42 T   8 O     1.724879721448E-01  1.657281130917E-01 -1.725257391376E-01
     43 T   8 O     1.763259436555E-01  4.984182534122E-01  1.695199014115E-01
     44 T   8 O     1.678322667031E-01  4.995295261038E-01  4.981404523482E-01
     45 T   8 O     1.619646418853E-01 -4.937418807055E-01 -1.729100429949E-01
     46 T   8 O    -4.783490071317E-01 -1.778461807193E-01  1.583327246269E-01
     47 T   8 O    -4.939281667515E-01 -1.751292726387E-01 -4.908517793019E-01
     48 T   8 O     4.947825071729E-01 -1.771283275459E-01 -1.688679523456E-01
     49 T   8 O    -4.996333463882E-01  1.651795856209E-01  1.686808324997E-01
     50 T   8 O     4.900597198492E-01  1.718277738166E-01  4.937224418553E-01
     51 T   8 O    -4.938925935166E-01  1.619465996634E-01 -1.624233297626E-01
     52 T   8 O    -4.970086315669E-01  4.978299850444E-01  1.674671553035E-01
     53 T   8 O    -4.877900979561E-01  4.979127519017E-01  4.861855461257E-01
     54 T   8 O     4.985805513088E-01 -4.865765649300E-01 -1.643586198112E-01

 T = ATOM BELONGING TO THE ASYMMETRIC UNIT

 ****    1 SYMMOPS - TRANSLATORS IN FRACTIONAL UNITS
 **** MATRICES AND TRANSLATORS IN THE CRYSTALLOGRAPHIC REFERENCE FRAME
   V INV                    ROTATION MATRICES                   TRANSLATORS
   1   1  1.00  0.00  0.00  0.00  1.00  0.00  0.00  0.00  1.00  0.00  0.00  0.00

 DIRECT LATTICE VECTORS CARTESIAN COMPONENTS (ANGSTROM)
          X                    Y                    Z
   0.178687467472E-02   0.699435278029E+01   0.700282562492E+01
   0.702019310007E+01  -0.917499994772E-02   0.700594084410E+01
   0.701640837393E+01   0.698697730702E+01   0.163158776199E-02


 CARTESIAN COORDINATES - PRIMITIVE CELL
 *******************************************************************************
 *      ATOM          X(ANGSTROM)         Y(ANGSTROM)         Z(ANGSTROM)
 *******************************************************************************
    1    20 CA   -2.120345734300E-02  8.466529235000E-03 -1.638778467000E-02
    2    20 CA    2.361244999786E+00  2.325373250467E+00  3.850445130000E-03
    3    20 CA   -2.342158981011E+00 -2.306684194527E+00 -1.308019888800E-02
    4    20 CA    2.393409582491E+00 -4.605129375700E-02  2.388688767785E+00
    5    20 CA    4.698982995023E+00  2.316045380191E+00  2.336951758023E+00
    6    20 CA    5.856657676001E-03 -2.337834474368E+00  2.346645187503E+00
    7    20 CA   -2.330601727845E+00 -2.488471245500E-02 -2.363734872633E+00
    8    20 CA    3.577459309999E-03  2.354261745650E+00 -2.344760983100E+00
    9    12 MG   -4.640741908756E+00 -2.408466653695E+00 -2.469539392622E+00
   10    20 CA   -4.715452202400E-02  2.356367646947E+00  2.372031095206E+00
   11    20 CA    2.316733117971E+00  4.726468564780E+00  2.357090370550E+00
   12    12 MG   -2.336699835547E+00 -4.874166615000E-03  2.299579111716E+00
   13    20 CA    2.375481188204E+00  2.378903557948E+00  4.712255573109E+00
   14    12 MG    4.683990624429E+00  4.709990387698E+00  4.675657983189E+00
   15    20 CA   -4.261891140800E-02 -3.826932649300E-02  4.682253175852E+00
   16    12 MG   -2.376016460096E+00  2.314936866119E+00  7.164956086600E-02
   17    20 CA   -8.026113093700E-02  4.668510789426E+00  3.008370016900E-02
   18    20 CA   -4.691215711304E+00  2.209332260000E-02  1.024417730100E-02
   19    12 MG   -2.902066636400E-02 -2.279865516279E+00 -2.347561585098E+00
   20    20 CA    2.356880537981E+00 -3.848273632000E-03 -2.383797135317E+00
   21    20 CA   -2.360377392447E+00 -4.661352678697E+00 -2.410506220243E+00
   22    20 CA    2.392178658472E+00 -2.339679293023E+00 -2.338908679000E-03
   23    12 MG    4.707941543972E+00 -5.710456763100E-02  6.015123341600E-02
   24    20 CA    7.740495544001E-03 -4.680293907285E+00  2.382301526300E-02
   25    12 MG   -2.355275032576E+00 -2.309659053215E+00 -4.702778149496E+00
   26    12 MG   -5.782329037000E-02  6.103491265000E-03 -4.692978730100E+00
   27    12 MG   -4.603789918624E+00 -4.725952245524E+00 -4.676506566721E+00
   28     8 O    -1.501278787700E-02 -8.104300920100E-02 -2.434032660763E+00
   29     8 O     2.347905705558E+00  2.441368411458E+00 -2.417811934320E+00
   30     8 O    -2.317011399936E+00 -2.334989474685E+00 -2.397335280818E+00
   31     8 O     2.408830969740E+00 -1.194378173000E-03 -1.076395652500E-02
   32     8 O     4.678423374017E+00  2.268442523788E+00 -6.660482654000E-03
   33     8 O    -3.691425218000E-03 -2.326989125042E+00 -4.824061656500E-02
   34     8 O     4.762003950827E+00 -9.705343198700E-02  2.249882442350E+00
   35     8 O     7.087231368268E+00  2.238322912647E+00  2.333963761818E+00
   36     8 O     2.438348808018E+00 -2.429781388239E+00  2.402122354152E+00
   37     8 O    -5.921713674000E-02  2.331923605900E+00  2.281915081200E-02
   38     8 O     2.348393944585E+00  4.662225525110E+00  6.007288787000E-03
   39     8 O    -2.336704490246E+00  8.027729540700E-02  6.672488312100E-02
   40     8 O     2.354653139020E+00  2.339945311317E+00  2.373039067906E+00
   41     8 O     4.680520924367E+00  4.751623560202E+00  2.408037370359E+00
   42     8 O    -4.675947040100E-02 -5.122521229999E-04  2.368703056966E+00
   43     8 O     4.688728311728E+00  2.413144571045E+00  4.726945222191E+00
   44     8 O     7.002250468911E+00  4.649790934127E+00  4.675787167587E+00
   45     8 O     2.341111692837E+00 -7.992562150000E-02  4.680742462238E+00
   46     8 O    -1.366553508720E-01  4.756509964935E+00  2.407309452390E+00
   47     8 O     2.343854814822E+00  7.098658808903E+00  2.317818197752E+00
   48     8 O    -2.427437463459E+00  2.282432006158E+00  2.223649512507E+00
   49     8 O     2.344020285422E+00  4.676794520969E+00  4.661494046863E+00
   50     8 O     4.671298102881E+00  6.875701541429E+00  4.636423534128E+00
   51     8 O    -1.827659024000E-03  2.403559766437E+00  4.678505204311E+00
   52     8 O     4.670779359384E+00  4.683620699952E+00  7.010401506978E+00
   53     8 O     6.907635257359E+00  6.974975780761E+00  7.076057167104E+00
   54     8 O     2.452015360882E+00  2.334167658421E+00  7.088218709354E+00
 WARNING **** CRYSTA **** TESTGEOM  DIRECTIVE - GEOMETRY EDITING COMPLETE
 TTTTTTTTTTTTTTTTTTTTTTTTTTTTTT END         TELAPSE        0.01 TCPU        0.01
 EEEEEEEEEE TERMINATION  DATE 10 03 2023 TIME 10:30:50.7
Fri 10 Mar 2023 10:30:50 GMT
Contents of temporary directory:
total 8
-rw-r--r--  1 brunocamino  admin  4027 10 Mar 10:30 fort.34
SCF abnormal end - no wf written in fort.9
geometry input file fort.34 saved as /Users/brunocamino/Desktop/Imperial/cmsg_icl/solid-solutions/./data/crystal/testgeom_opt/CaMgO_testgeom_2288.gui
temporary directory /Users/brunocamino/crystal/tmp removed
