date Fri 10 Mar 2023 10:29:40 GMT
hostname MacBook-Pro-8
system Darwin MacBook-Pro-8 21.6.0 Darwin Kernel Version 21.6.0: Mon Aug 22 20:20:05 PDT 2022; root:xnu-8020.140.49~2/RELEASE_ARM64_T8101 arm64
user brunocamino
output data in /Users/brunocamino/Desktop/Imperial/cmsg_icl/solid-solutions/./data/crystal/testgeom_opt/CaMgO_testgeom_1405.out
crystal executable in /Users/brunocamino/crystal
input data in /Users/brunocamino/Desktop/Imperial/cmsg_icl/solid-solutions/./data/crystal/testgeom_opt/CaMgO_testgeom_1405.d12
temporary directory /Users/brunocamino/crystal/tmp
external geometry input from /Users/brunocamino/Desktop/Imperial/cmsg_icl/solid-solutions/./data/crystal/testgeom_opt/CaMgO_testgeom_1405.gui
external geometry input saved in /Users/brunocamino/Desktop/Imperial/cmsg_icl/solid-solutions/./data/crystal/testgeom_opt/CaMgO_testgeom_1405_inp.gui
Bulk 
EXTERNAL
EXTPRT
TESTGEOM
END

         
 *******************************************************************************
 *                                                                             *
 *                               CRYSTAL17                                     *
 *                      public : 1.0.1 - Feb 1st, 2017                         *
 *                       HTTP://WWW.CRYSTAL.UNITO.IT                           *
 *                                                                             *
 *                              MAIN AUTHORS                                   *
 *                                                                             *
 *  R. DOVESI(1,11), V.R. SAUNDERS(2), C. ROETTI(1,11), R. ORLANDO(1,11),      *
 *  C.M. ZICOVICH-WILSON(1,3), F. PASCALE(4), B. CIVALLERI(1,11),              *
 *  K. DOLL(5), N.M. HARRISON(2,6), I.J. BUSH(7), Ph. D'ARCO(8),               *
 *  M. LLUNELL(9), M. CAUSA'(10), Y. NOEL(8), L. MASCHIO(1,11), A. ERBA(1,11)  *
 *  M. RE'RAT(14), S. CASASSA(1,11)                                            *
 *                                                                             *
 *        CONTRIBUTIONS TO THE CODE HAVE ALSO BEEN GIVEN BY                    *
 *                                                                             *
 *  M. FERRABONE(1,11), M. DE LA PIERRE(1,11), M. FERRERO(1,11),               *
 *  J. BAIMA(1,11), E. ALBANESE(1,11), M.F. PEINTINGER(12), R. BAST(13),       *
 *  B. KIRTMAN(15), V. LACIVITA(1,11), R. DEMICHELIS(1,16)                     *
 *  G. BRANDEBURG(17), S. SALUSTRO(1,11), G. SANSONE(1,11)                     *
 *  M.T. RUGGIERO(18)                                                          *
 *                                                                             *
 * (1) THEORETICAL CHEMISTRY GROUP - UNIVERSITA' DI TORINO - TORINO (ITALY)    *

 * (2) COMPUTATIONAL SCIENCE & ENGINEERING DEPARTMENT - STFC DARESBURY (UK)    *
 * (3) UNIVERSIDAD AUTONOMA DEL ESTADO DE MORELOS - CUERNAVACA (MEXICO)        *
 * (4) UNIVERSITE' DE LORRAINE - NANCY (FRANCE)                                *
 * (5) UNIVERSITAET STUTTGART- STUTTGART (GERMANY)                             *
 * (6) IMPERIAL COLLEGE - LONDON (UK)                                          *
 * (7) OXFORD E-RESEARCH CENTRE - OXFORD (UK)                                  *
 * (8) UPMC - SORBONNE UNIVERSITES - PARIS (FRANCE)                            *
 * (9) UNIVERSIDAD DE BARCELONA - BARCELONA (SPAIN)                            *
 *(10) UNIVERSITA' DI NAPOLI "FEDERICO II" - NAPOLI (ITALY)                    *
 *(11) NIS - NANOSTRUCTURED INTERFACES AND SURFACES - TORINO (ITALY)           *
 *(12) MPI FUER CHEMISCHE ENERGIEKONVERSION - MUELHEIM AN DER RUHR (GERMANY)   *
 *(13) UNIVERSITY OF TROMSO - TROMSO (NORWAY)                                  *
 *(14) UNIVERSITE' DE PAU ET DES PAYS DE L'ADOUR - PAU (FRANCE)                *
 *(15) UNIVERSITY OF CALIFORNIA SANTA BARBARA - SANTA BARBARA (USA)            *
 *(16) CURTIN UNIVERSITY - PERTH (AUSTRALIA)                                   *
 *(17) UNIVERSITY COLLEGE LONDON - LONDON (UK)                                 *
 *(18) CAMBRIDGE UNIVERSITY - CAMBRIDGE (UK)                                   *
 *                                                                             *
 *******************************************************************************
 EEEEEEEEEE STARTING  DATE 10 03 2023 TIME 10:29:40.6
 Bulk                                                                            

 GEOMETRY INPUT FROM EXTERNAL FILE (FORTRAN UNIT 34)
 3D - CRYSTAL 

 *******************************************************************************
 LATTICE PARAMETERS  (ANGSTROMS AND DEGREES) - PRIMITIVE CELL
       A          B          C        ALPHA      BETA     GAMMA        VOLUME
    9.91030    9.92648    9.90580    59.96976  60.09998  59.88944    688.841908
 INFORMATION **** CHKGRP **** SPGR WITH NO INVERSION

 NUMBER OF IRREDUCIBLE ATOMS IN THE CELL:   54

 CARTESIAN COORDINATES (ANGSTROM) - IRREDUCIBLE ATOMS AND SYMMETRY RELATED

 AT.IRR.  AT  AT.N.          X                   Y                   Z
     1     1    20    1.110678829700E-02 -2.745636690800E-02 -3.405420088200E-02
     2     2    20    2.350300760737E+00  2.335180588002E+00 -4.218126543900E-02
     3     3    20   -2.327584656098E+00 -2.358518000693E+00 -3.049168788300E-02
     4     4    20    2.357025063811E+00 -3.443009705200E-02  2.351855880669E+00
     5     5    20    4.713293219803E+00  2.302965296205E+00  2.318707885155E+00
     6     6    20    1.717524125300E-02 -2.334067381616E+00  2.369674663536E+00
     7     7    20   -2.329510747003E+00 -3.038048421800E-02 -2.337753052779E+00
     8     8    20   -3.707840168000E-03  2.372646661194E+00 -2.353663421242E+00
     9     9    12   -4.762273447394E+00 -2.287054039756E+00 -2.309507973831E+00
    10    10    20    8.285367479000E-03  2.360086976396E+00  2.377233398875E+00
    11    11    20    2.299390482061E+00  4.676813911760E+00  2.345835773456E+00
    12    12    20   -2.325787986600E+00 -8.822909953000E-03  2.394928125916E+00
    13    13    20    2.305900090155E+00  2.361054342732E+00  4.736381972831E+00
    14    14    12    4.716550794449E+00  4.719116317797E+00  4.766396777429E+00
    15    15    12    1.089723315300E-02 -1.197263991690E-01  4.767981489938E+00
    16    16    20   -2.346822941367E+00  2.415815379573E+00 -7.863510418000E-03
    17    17    12    1.426463401000E-03  4.727093981077E+00 -1.047068005160E-01
    18    18    20   -4.776372675166E+00  4.174621099000E-03  3.064107456000E-03
    19    19    12    2.134479811500E-02 -2.313344715014E+00 -2.300446149999E+00
    20    20    20    2.354437412232E+00 -4.746772816700E-02 -2.319491295088E+00
    21    21    20   -2.297183747128E+00 -4.663741628799E+00 -2.323939508651E+00
    22    22    12    2.258570194032E+00 -2.336128410526E+00 -8.762229192700E-02
    23    23    12    4.810343908977E+00 -7.055503824500E-02 -9.755577488000E-03
    24    24    12   -2.827337214500E-02 -4.667188988188E+00 -5.141778631600E-02
    25    25    20   -2.317991943643E+00 -2.290370963229E+00 -4.716984140702E+00
    26    26    12   -4.102673737300E-02 -3.246222337100E-02 -4.673697192922E+00
    27    27    20   -4.711073193361E+00 -4.634893043593E+00 -4.697509802088E+00
    28    28     8    3.171876247000E-03 -8.981318583000E-02 -2.400550127092E+00
    29    29     8    2.339103213641E+00  2.411408329507E+00 -2.319971499055E+00
    30    30     8   -2.304872159068E+00 -2.326847675542E+00 -2.332291546523E+00
    31    31     8    2.411507735383E+00 -1.189238503060E-01  1.377546805100E-02
    32    32     8    4.779392710586E+00  2.233114085538E+00 -1.218886238300E-02
    33    33     8    9.015710965800E-02 -2.395391971867E+00 -8.782444554100E-02
    34    34     8    4.805496745227E+00 -9.454817390000E-04  2.295684983100E+00
    35    35     8    7.013857723743E+00  2.230092414545E+00  2.250395577149E+00
    36    36     8    2.332864060796E+00 -2.330335305860E+00  2.363909447596E+00
    37    37     8   -8.644718250000E-04  2.418827434212E+00  8.274158642000E-03
    38    38     8    2.234277959619E+00  4.665600520830E+00 -8.879318034100E-02
    39    39     8   -2.348803540110E+00  1.263316645000E-02  5.668889425000E-03
    40    40     8    2.346175905138E+00  2.324578914030E+00  2.345779971780E+00
    41    41     8    4.674435910389E+00  4.666313170517E+00  2.361980195648E+00
    42    42     8   -1.047894685500E-02  3.393602622000E-03  2.377414028202E+00
    43    43     8    4.681794418061E+00  2.437674739134E+00  4.677114196149E+00
    44    44     8    7.043491147367E+00  4.737278794236E+00  4.771730962114E+00
    45    45     8    2.236809901515E+00 -1.232440767560E-01  4.698597862486E+00
    46    46     8    6.563463456000E-03  4.768337696188E+00  2.380550885625E+00
    47    47     8    2.246261538537E+00  7.002046523846E+00  2.345965005849E+00
    48    48     8   -2.333953482517E+00  2.336779858910E+00  2.340195734251E+00
    49    49     8    2.296053234992E+00  4.665289022807E+00  4.726033454800E+00
    50    50     8    4.797948668629E+00  6.875465203830E+00  4.766874157920E+00
    51    51     8    2.205518280000E-03  2.347444865098E+00  4.795457760140E+00
    52    52     8    4.705400397712E+00  4.755826696348E+00  6.902977008660E+00
    53    53     8    6.911231935574E+00  6.951559540778E+00  6.964591414158E+00
    54    54     8    2.243698664999E+00  2.439413934005E+00  7.030132103609E+00

 SYMMETRY CHANGED DURING OLD RUN :  INFORMATION ON SPACE GROUP LOST 
 NUMBER OF SYMMETRY OPERATORS         :    1
 *******************************************************************************
 LATTICE PARAMETERS (ANGSTROMS AND DEGREES) - BOHR = 0.5291772083 ANGSTROM
 PRIMITIVE CELL - CENTRING CODE 1/0 VOLUME=   688.841908 - DENSITY  3.295 g/cm^3
         A              B              C           ALPHA      BETA       GAMMA 
     9.91029853     9.92647916     9.90580101    59.969761  60.099980  59.889435
 *******************************************************************************
 ATOMS IN THE ASYMMETRIC UNIT   54 - ATOMS IN THE UNIT CELL:   54
     ATOM                 X/A                 Y/B                 Z/C    
 *******************************************************************************
      1 T  20 CA   -5.181471983400E-03  3.319509099655E-04  1.255496802446E-03
      2 T  20 CA   -3.465754060279E-03 -2.574066329536E-03  3.374846449379E-01
      3 T  20 CA   -4.998801141797E-03  6.898961326501E-04 -3.323569706146E-01
      4 T  20 CA   -3.006177476412E-03  3.378350954926E-01 -1.791253397060E-03
      5 T  20 CA   -6.095566691965E-03  3.361708046906E-01  3.356340816369E-01
      6 T  20 CA    5.227888602228E-04  3.368770193765E-01 -3.342564143530E-01
      7 T  20 CA   -2.588263601761E-03 -3.302337469881E-01 -1.880523401563E-03
      8 T  20 CA    2.417790455782E-03 -3.375377063116E-01  3.368332019232E-01
      9 T  12 MG    1.138091471290E-02 -3.401448922232E-01 -3.386462312040E-01
     10 T  20 CA    3.375703093758E-01  9.477150629199E-04 -6.640714834899E-05
     11 T  20 CA    3.377720511000E-01 -3.757146687437E-03  3.311095253515E-01
     12 T  20 CA    3.357220642432E-01  5.348436860926E-03 -3.370597031624E-01
     13 T  20 CA    3.418514762276E-01  3.325355698005E-01 -4.085857902463E-03
     14 T  12 MG    3.408620697818E-01  3.377640530993E-01  3.341976953908E-01
     15 T  12 MG    3.302036189785E-01  3.487139269787E-01 -3.472746185591E-01
     16 T  20 CA    3.395965514660E-01 -3.406405318286E-01  5.750063409546E-03
     17 T  12 MG    3.306741006406E-01 -3.455414605902E-01  3.452729072905E-01
     18 T  20 CA    3.410152455698E-01 -3.404684991741E-01 -3.406246421754E-01
     19 T  12 MG   -3.308697621242E-01  3.285300766293E-03  5.180712213071E-05
     20 T  20 CA   -3.364199665726E-01  6.089847935856E-03  3.297103678265E-01
     21 T  20 CA   -3.354346978019E-01  4.537695138081E-03 -3.315772960975E-01
     22 T  12 MG   -3.344033607329E-01  3.218537460899E-01  4.467478256122E-04
     23 T  12 MG   -3.486631578671E-01  3.471622295444E-01  3.387819252813E-01
     24 T  12 MG   -3.355921815431E-01  3.282299187453E-01 -3.317915030530E-01
     25 T  20 CA   -3.345505464383E-01 -3.370735103458E-01  6.891932100999E-03
     26 T  12 MG   -3.322307612151E-01 -3.332621814074E-01  3.275393003467E-01
     27 T  20 CA   -3.303205069896E-01 -3.384960913087E-01 -3.326948599546E-01
     28 T   8 O    -1.776052320500E-01 -1.642129814191E-01  1.647380485734E-01
     29 T   8 O    -1.594238551073E-01 -1.709524360050E-01 -4.956808790816E-01
     30 T   8 O    -1.682722713844E-01 -1.637930447378E-01 -1.645773671590E-01
     31 T   8 O    -1.794399219846E-01  1.813446286968E-01  1.625388123012E-01
     32 T   8 O    -1.817981728489E-01  1.799719522097E-01 -4.986726139112E-01
     33 T   8 O    -1.840762156173E-01  1.715474129218E-01 -1.584484492039E-01
     34 T   8 O    -1.791572393048E-01 -4.940683867652E-01  1.792531395956E-01
     35 T   8 O    -1.801773286251E-01 -4.995283343073E-01  4.993941323567E-01
     36 T   8 O    -1.647016991406E-01 -4.987729035824E-01 -1.683982640457E-01
     37 T   8 O     1.737224724184E-01 -1.725227905766E-01  1.721563775244E-01
     38 T   8 O     1.682317529594E-01 -1.808853120118E-01  4.990186726064E-01
     39 T   8 O     1.687492759234E-01 -1.678876701369E-01 -1.670442318611E-01
     40 T   8 O     1.661260383188E-01  1.678589366774E-01  1.664011025146E-01
     41 T   8 O     1.688580344177E-01  1.674007013564E-01  4.986247796672E-01
     42 T   8 O     1.702950422194E-01  1.682281940927E-01 -1.697859282912E-01
     43 T   8 O     1.737402173585E-01  4.921533770405E-01  1.750837401684E-01
     44 T   8 O     1.766584367544E-01 -4.973263991151E-01 -4.989009430357E-01
     45 T   8 O     1.663298426105E-01 -4.973434022052E-01 -1.838083833666E-01
     46 T   8 O    -4.897558616626E-01 -1.712322929479E-01  1.716261150791E-01
     47 T   8 O    -4.920565605691E-01 -1.738882430247E-01  4.934311090879E-01
     48 T   8 O    -4.997612982069E-01 -1.669405824533E-01 -1.661691680894E-01
     49 T   8 O    -4.933112353459E-01  1.662454462810E-01  1.605690018476E-01
     50 T   8 O     4.893841501678E-01  1.893272276015E-01  4.940249743795E-01
     51 T   8 O    -4.906893690490E-01  1.735414201047E-01 -1.735900250392E-01
     52 T   8 O     4.964381139652E-01  4.864189305330E-01  1.838923871951E-01
     53 T   8 O    -4.993147489804E-01  4.909136690922E-01  4.937187119243E-01
     54 T   8 O    -4.847603724094E-01  4.857595092475E-01 -1.662482679570E-01

 T = ATOM BELONGING TO THE ASYMMETRIC UNIT
 *******************************************************************************
 * GEOMETRY EDITING - INPUT COORDINATES ARE GIVEN IN ANGSTROM         
 *******************************************************************************

 GCALCO - MAX INDICES DIRECT LATTICE VECTOR    14    14    14
 NO.OF VECTORS CREATED 6999 STARS 3500 RMAX   198.38302 BOHR

 GEOMETRY FOR WAVE FUNCTION - DIMENSIONALITY OF THE SYSTEM    3
 (NON PERIODIC DIRECTION: LATTICE PARAMETER FORMALLY SET TO 500)
 *******************************************************************************
 LATTICE PARAMETERS (ANGSTROMS AND DEGREES) - BOHR = 0.5291772083 ANGSTROM
 PRIMITIVE CELL - CENTRING CODE 1/0 VOLUME=   688.841908 - DENSITY  3.295 g/cm^3
         A              B              C           ALPHA      BETA       GAMMA 
     9.91029853     9.92647916     9.90580101    59.969761  60.099980  59.889435
 *******************************************************************************
 ATOMS IN THE ASYMMETRIC UNIT   54 - ATOMS IN THE UNIT CELL:   54
     ATOM                 X/A                 Y/B                 Z/C    
 *******************************************************************************
      1 T  20 CA   -5.181471983400E-03  3.319509099655E-04  1.255496802446E-03
      2 T  20 CA   -3.465754060279E-03 -2.574066329536E-03  3.374846449379E-01
      3 T  20 CA   -4.998801141797E-03  6.898961326502E-04 -3.323569706146E-01
      4 T  20 CA   -3.006177476412E-03  3.378350954926E-01 -1.791253397059E-03
      5 T  20 CA   -6.095566691965E-03  3.361708046906E-01  3.356340816369E-01
      6 T  20 CA    5.227888602228E-04  3.368770193765E-01 -3.342564143530E-01
      7 T  20 CA   -2.588263601761E-03 -3.302337469881E-01 -1.880523401563E-03
      8 T  20 CA    2.417790455782E-03 -3.375377063116E-01  3.368332019232E-01
      9 T  12 MG    1.138091471290E-02 -3.401448922232E-01 -3.386462312040E-01
     10 T  20 CA    3.375703093758E-01  9.477150629200E-04 -6.640714834891E-05
     11 T  20 CA    3.377720511000E-01 -3.757146687437E-03  3.311095253515E-01
     12 T  20 CA    3.357220642432E-01  5.348436860926E-03 -3.370597031624E-01
     13 T  20 CA    3.418514762276E-01  3.325355698005E-01 -4.085857902463E-03
     14 T  12 MG    3.408620697818E-01  3.377640530993E-01  3.341976953908E-01
     15 T  12 MG    3.302036189785E-01  3.487139269787E-01 -3.472746185591E-01
     16 T  20 CA    3.395965514660E-01 -3.406405318286E-01  5.750063409546E-03
     17 T  12 MG    3.306741006406E-01 -3.455414605902E-01  3.452729072905E-01
     18 T  20 CA    3.410152455698E-01 -3.404684991741E-01 -3.406246421754E-01
     19 T  12 MG   -3.308697621242E-01  3.285300766293E-03  5.180712213068E-05
     20 T  20 CA   -3.364199665726E-01  6.089847935856E-03  3.297103678265E-01
     21 T  20 CA   -3.354346978019E-01  4.537695138081E-03 -3.315772960975E-01
     22 T  12 MG   -3.344033607329E-01  3.218537460899E-01  4.467478256124E-04
     23 T  12 MG   -3.486631578671E-01  3.471622295444E-01  3.387819252813E-01
     24 T  12 MG   -3.355921815431E-01  3.282299187453E-01 -3.317915030530E-01
     25 T  20 CA   -3.345505464383E-01 -3.370735103458E-01  6.891932100999E-03
     26 T  12 MG   -3.322307612151E-01 -3.332621814074E-01  3.275393003467E-01
     27 T  20 CA   -3.303205069896E-01 -3.384960913087E-01 -3.326948599546E-01
     28 T   8 O    -1.776052320500E-01 -1.642129814191E-01  1.647380485734E-01
     29 T   8 O    -1.594238551073E-01 -1.709524360050E-01 -4.956808790816E-01
     30 T   8 O    -1.682722713844E-01 -1.637930447378E-01 -1.645773671590E-01
     31 T   8 O    -1.794399219846E-01  1.813446286968E-01  1.625388123012E-01
     32 T   8 O    -1.817981728489E-01  1.799719522097E-01 -4.986726139112E-01
     33 T   8 O    -1.840762156173E-01  1.715474129218E-01 -1.584484492039E-01
     34 T   8 O    -1.791572393048E-01 -4.940683867652E-01  1.792531395956E-01
     35 T   8 O    -1.801773286251E-01 -4.995283343073E-01  4.993941323567E-01
     36 T   8 O    -1.647016991406E-01 -4.987729035824E-01 -1.683982640457E-01
     37 T   8 O     1.737224724184E-01 -1.725227905766E-01  1.721563775244E-01
     38 T   8 O     1.682317529594E-01 -1.808853120118E-01  4.990186726064E-01
     39 T   8 O     1.687492759234E-01 -1.678876701369E-01 -1.670442318611E-01
     40 T   8 O     1.661260383188E-01  1.678589366774E-01  1.664011025146E-01
     41 T   8 O     1.688580344177E-01  1.674007013564E-01  4.986247796672E-01
     42 T   8 O     1.702950422194E-01  1.682281940927E-01 -1.697859282912E-01
     43 T   8 O     1.737402173585E-01  4.921533770405E-01  1.750837401684E-01
     44 T   8 O     1.766584367544E-01 -4.973263991151E-01 -4.989009430357E-01
     45 T   8 O     1.663298426105E-01 -4.973434022052E-01 -1.838083833666E-01
     46 T   8 O    -4.897558616626E-01 -1.712322929479E-01  1.716261150791E-01
     47 T   8 O    -4.920565605691E-01 -1.738882430247E-01  4.934311090879E-01
     48 T   8 O    -4.997612982069E-01 -1.669405824533E-01 -1.661691680894E-01
     49 T   8 O    -4.933112353459E-01  1.662454462810E-01  1.605690018476E-01
     50 T   8 O     4.893841501678E-01  1.893272276015E-01  4.940249743795E-01
     51 T   8 O    -4.906893690490E-01  1.735414201047E-01 -1.735900250392E-01
     52 T   8 O     4.964381139652E-01  4.864189305330E-01  1.838923871951E-01
     53 T   8 O    -4.993147489805E-01  4.909136690922E-01  4.937187119243E-01
     54 T   8 O    -4.847603724094E-01  4.857595092475E-01 -1.662482679570E-01

 T = ATOM BELONGING TO THE ASYMMETRIC UNIT

 ****    1 SYMMOPS - TRANSLATORS IN FRACTIONAL UNITS
 **** MATRICES AND TRANSLATORS IN THE CRYSTALLOGRAPHIC REFERENCE FRAME
   V INV                    ROTATION MATRICES                   TRANSLATORS
   1   1  1.00  0.00  0.00  0.00  1.00  0.00  0.00  0.00  1.00  0.00  0.00  0.00

 DIRECT LATTICE VECTORS CARTESIAN COMPONENTS (ANGSTROM)
          X                    Y                    Z
   0.623281214280E-02   0.699277649202E+01   0.702246788073E+01
   0.701411537938E+01  -0.262148939052E-02   0.702404207332E+01
   0.701773309063E+01   0.699115980245E+01   0.702939625717E-03


 CARTESIAN COORDINATES - PRIMITIVE CELL
 *******************************************************************************
 *      ATOM          X(ANGSTROM)         Y(ANGSTROM)         Z(ANGSTROM)
 *******************************************************************************
    1    20 CA    1.110678829700E-02 -2.745636690800E-02 -3.405420088200E-02
    2    20 CA    2.350300760737E+00  2.335180588002E+00 -4.218126543900E-02
    3    20 CA   -2.327584656098E+00 -2.358518000693E+00 -3.049168788300E-02
    4    20 CA    2.357025063811E+00 -3.443009705200E-02  2.351855880669E+00
    5    20 CA    4.713293219803E+00  2.302965296205E+00  2.318707885155E+00
    6    20 CA    1.717524125300E-02 -2.334067381616E+00  2.369674663536E+00
    7    20 CA   -2.329510747003E+00 -3.038048421800E-02 -2.337753052779E+00
    8    20 CA   -3.707840168000E-03  2.372646661194E+00 -2.353663421242E+00
    9    12 MG   -4.762273447394E+00 -2.287054039756E+00 -2.309507973831E+00
   10    20 CA    8.285367479000E-03  2.360086976396E+00  2.377233398875E+00
   11    20 CA    2.299390482061E+00  4.676813911760E+00  2.345835773456E+00
   12    20 CA   -2.325787986600E+00 -8.822909953000E-03  2.394928125916E+00
   13    20 CA    2.305900090155E+00  2.361054342732E+00  4.736381972831E+00
   14    12 MG    4.716550794449E+00  4.719116317797E+00  4.766396777429E+00
   15    12 MG    1.089723315300E-02 -1.197263991690E-01  4.767981489938E+00
   16    20 CA   -2.346822941367E+00  2.415815379573E+00 -7.863510418000E-03
   17    12 MG    1.426463401001E-03  4.727093981077E+00 -1.047068005160E-01
   18    20 CA   -4.776372675166E+00  4.174621099000E-03  3.064107456000E-03
   19    12 MG    2.134479811500E-02 -2.313344715014E+00 -2.300446149999E+00
   20    20 CA    2.354437412232E+00 -4.746772816700E-02 -2.319491295088E+00
   21    20 CA   -2.297183747128E+00 -4.663741628799E+00 -2.323939508651E+00
   22    12 MG    2.258570194032E+00 -2.336128410526E+00 -8.762229192700E-02
   23    12 MG    4.810343908977E+00 -7.055503824500E-02 -9.755577488001E-03
   24    12 MG   -2.827337214500E-02 -4.667188988188E+00 -5.141778631600E-02
   25    20 CA   -2.317991943643E+00 -2.290370963229E+00 -4.716984140702E+00
   26    12 MG   -4.102673737300E-02 -3.246222337100E-02 -4.673697192922E+00
   27    20 CA   -4.711073193361E+00 -4.634893043593E+00 -4.697509802088E+00
   28     8 O     3.171876247000E-03 -8.981318583000E-02 -2.400550127092E+00
   29     8 O     2.339103213641E+00  2.411408329507E+00 -2.319971499055E+00
   30     8 O    -2.304872159068E+00 -2.326847675542E+00 -2.332291546523E+00
   31     8 O     2.411507735383E+00 -1.189238503060E-01  1.377546805100E-02
   32     8 O     4.779392710586E+00  2.233114085538E+00 -1.218886238300E-02
   33     8 O     9.015710965800E-02 -2.395391971867E+00 -8.782444554100E-02
   34     8 O     4.805496745227E+00 -9.454817389993E-04  2.295684983100E+00
   35     8 O     7.013857723743E+00  2.230092414545E+00  2.250395577149E+00
   36     8 O     2.332864060796E+00 -2.330335305860E+00  2.363909447596E+00
   37     8 O    -8.644718250001E-04  2.418827434212E+00  8.274158642000E-03
   38     8 O     2.234277959619E+00  4.665600520830E+00 -8.879318034100E-02
   39     8 O    -2.348803540110E+00  1.263316645000E-02  5.668889425000E-03
   40     8 O     2.346175905138E+00  2.324578914030E+00  2.345779971780E+00
   41     8 O     4.674435910389E+00  4.666313170517E+00  2.361980195648E+00
   42     8 O    -1.047894685500E-02  3.393602622000E-03  2.377414028202E+00
   43     8 O     4.681794418061E+00  2.437674739134E+00  4.677114196149E+00
   44     8 O     7.043491147367E+00  4.737278794236E+00  4.771730962114E+00
   45     8 O     2.236809901515E+00 -1.232440767560E-01  4.698597862486E+00
   46     8 O     6.563463456001E-03  4.768337696188E+00  2.380550885625E+00
   47     8 O     2.246261538537E+00  7.002046523846E+00  2.345965005849E+00
   48     8 O    -2.333953482517E+00  2.336779858910E+00  2.340195734251E+00
   49     8 O     2.296053234992E+00  4.665289022807E+00  4.726033454800E+00
   50     8 O     4.797948668629E+00  6.875465203830E+00  4.766874157920E+00
   51     8 O     2.205518280001E-03  2.347444865098E+00  4.795457760140E+00
   52     8 O     4.705400397712E+00  4.755826696348E+00  6.902977008660E+00
   53     8 O     6.911231935574E+00  6.951559540778E+00  6.964591414158E+00
   54     8 O     2.243698664999E+00  2.439413934005E+00  7.030132103609E+00
 WARNING **** CRYSTA **** TESTGEOM  DIRECTIVE - GEOMETRY EDITING COMPLETE
 TTTTTTTTTTTTTTTTTTTTTTTTTTTTTT END         TELAPSE        0.01 TCPU        0.01
 EEEEEEEEEE TERMINATION  DATE 10 03 2023 TIME 10:29:40.6
Fri 10 Mar 2023 10:29:40 GMT
Contents of temporary directory:
total 8
-rw-r--r--  1 brunocamino  admin  4027 10 Mar 10:29 fort.34
SCF abnormal end - no wf written in fort.9
geometry input file fort.34 saved as /Users/brunocamino/Desktop/Imperial/cmsg_icl/solid-solutions/./data/crystal/testgeom_opt/CaMgO_testgeom_1405.gui
temporary directory /Users/brunocamino/crystal/tmp removed
