date Fri 10 Mar 2023 10:31:04 GMT
hostname MacBook-Pro-8
system Darwin MacBook-Pro-8 21.6.0 Darwin Kernel Version 21.6.0: Mon Aug 22 20:20:05 PDT 2022; root:xnu-8020.140.49~2/RELEASE_ARM64_T8101 arm64
user brunocamino
output data in /Users/brunocamino/Desktop/Imperial/cmsg_icl/solid-solutions/./data/crystal/testgeom_opt/CaMgO_testgeom_2468.out
crystal executable in /Users/brunocamino/crystal
input data in /Users/brunocamino/Desktop/Imperial/cmsg_icl/solid-solutions/./data/crystal/testgeom_opt/CaMgO_testgeom_2468.d12
temporary directory /Users/brunocamino/crystal/tmp
external geometry input from /Users/brunocamino/Desktop/Imperial/cmsg_icl/solid-solutions/./data/crystal/testgeom_opt/CaMgO_testgeom_2468.gui
external geometry input saved in /Users/brunocamino/Desktop/Imperial/cmsg_icl/solid-solutions/./data/crystal/testgeom_opt/CaMgO_testgeom_2468_inp.gui
Bulk 
EXTERNAL
EXTPRT
TESTGEOM
END

         
 *******************************************************************************
 *                                                                             *
 *                               CRYSTAL17                                     *
 *                      public : 1.0.1 - Feb 1st, 2017                         *
 *                       HTTP://WWW.CRYSTAL.UNITO.IT                           *
 *                                                                             *
 *                              MAIN AUTHORS                                   *
 *                                                                             *
 *  R. DOVESI(1,11), V.R. SAUNDERS(2), C. ROETTI(1,11), R. ORLANDO(1,11),      *
 *  C.M. ZICOVICH-WILSON(1,3), F. PASCALE(4), B. CIVALLERI(1,11),              *
 *  K. DOLL(5), N.M. HARRISON(2,6), I.J. BUSH(7), Ph. D'ARCO(8),               *
 *  M. LLUNELL(9), M. CAUSA'(10), Y. NOEL(8), L. MASCHIO(1,11), A. ERBA(1,11)  *
 *  M. RE'RAT(14), S. CASASSA(1,11)                                            *
 *                                                                             *
 *        CONTRIBUTIONS TO THE CODE HAVE ALSO BEEN GIVEN BY                    *
 *                                                                             *
 *  M. FERRABONE(1,11), M. DE LA PIERRE(1,11), M. FERRERO(1,11),               *
 *  J. BAIMA(1,11), E. ALBANESE(1,11), M.F. PEINTINGER(12), R. BAST(13),       *
 *  B. KIRTMAN(15), V. LACIVITA(1,11), R. DEMICHELIS(1,16)                     *
 *  G. BRANDEBURG(17), S. SALUSTRO(1,11), G. SANSONE(1,11)                     *
 *  M.T. RUGGIERO(18)                                                          *
 *                                                                             *
 * (1) THEORETICAL CHEMISTRY GROUP - UNIVERSITA' DI TORINO - TORINO (ITALY)    *

 * (2) COMPUTATIONAL SCIENCE & ENGINEERING DEPARTMENT - STFC DARESBURY (UK)    *
 * (3) UNIVERSIDAD AUTONOMA DEL ESTADO DE MORELOS - CUERNAVACA (MEXICO)        *
 * (4) UNIVERSITE' DE LORRAINE - NANCY (FRANCE)                                *
 * (5) UNIVERSITAET STUTTGART- STUTTGART (GERMANY)                             *
 * (6) IMPERIAL COLLEGE - LONDON (UK)                                          *
 * (7) OXFORD E-RESEARCH CENTRE - OXFORD (UK)                                  *
 * (8) UPMC - SORBONNE UNIVERSITES - PARIS (FRANCE)                            *
 * (9) UNIVERSIDAD DE BARCELONA - BARCELONA (SPAIN)                            *
 *(10) UNIVERSITA' DI NAPOLI "FEDERICO II" - NAPOLI (ITALY)                    *
 *(11) NIS - NANOSTRUCTURED INTERFACES AND SURFACES - TORINO (ITALY)           *
 *(12) MPI FUER CHEMISCHE ENERGIEKONVERSION - MUELHEIM AN DER RUHR (GERMANY)   *
 *(13) UNIVERSITY OF TROMSO - TROMSO (NORWAY)                                  *
 *(14) UNIVERSITE' DE PAU ET DES PAYS DE L'ADOUR - PAU (FRANCE)                *
 *(15) UNIVERSITY OF CALIFORNIA SANTA BARBARA - SANTA BARBARA (USA)            *
 *(16) CURTIN UNIVERSITY - PERTH (AUSTRALIA)                                   *
 *(17) UNIVERSITY COLLEGE LONDON - LONDON (UK)                                 *
 *(18) CAMBRIDGE UNIVERSITY - CAMBRIDGE (UK)                                   *
 *                                                                             *
 *******************************************************************************
 EEEEEEEEEE STARTING  DATE 10 03 2023 TIME 10:31:04.8
 Bulk                                                                            

 GEOMETRY INPUT FROM EXTERNAL FILE (FORTRAN UNIT 34)
 3D - CRYSTAL 

 *******************************************************************************
 LATTICE PARAMETERS  (ANGSTROMS AND DEGREES) - PRIMITIVE CELL
       A          B          C        ALPHA      BETA     GAMMA        VOLUME
    9.90152    9.89383    9.89734    59.95730  60.06743  60.02273    685.843112
 INFORMATION **** CHKGRP **** SPGR WITH NO INVERSION

 NUMBER OF IRREDUCIBLE ATOMS IN THE CELL:   54

 CARTESIAN COORDINATES (ANGSTROM) - IRREDUCIBLE ATOMS AND SYMMETRY RELATED

 AT.IRR.  AT  AT.N.          X                   Y                   Z
     1     1    20   -1.176966507300E-02 -3.262631166000E-02 -3.514678828000E-03
     2     2    20    2.352478309575E+00  2.331507833128E+00 -1.880814233100E-02
     3     3    20   -2.311418728727E+00 -2.322367151218E+00  2.701895440000E-04
     4     4    20    2.338876354127E+00 -2.255386081300E-02  2.359176782324E+00
     5     5    20    4.683348303666E+00  2.295816459716E+00  2.289723610066E+00
     6     6    20    1.817696711300E-02 -2.344693419197E+00  2.292557145761E+00
     7     7    20   -2.364561565729E+00 -2.534972687700E-02 -2.339130981657E+00
     8     8    20    9.658092193000E-03  2.326793876017E+00 -2.377163648984E+00
     9     9    12   -4.688815400321E+00 -2.330263418958E+00 -2.259106415366E+00
    10    10    20   -9.088681476000E-03  2.350071901791E+00  2.386351693684E+00
    11    11    20    2.318925349641E+00  4.708440954956E+00  2.333666629255E+00
    12    12    12   -2.335930926346E+00  1.733412325500E-02  2.325975078864E+00
    13    13    12    2.299726956692E+00  2.428260103757E+00  4.763129167597E+00
    14    14    20    4.623645979363E+00  4.684122873661E+00  4.671071515643E+00
    15    15    20    1.204540888300E-02  2.362331607800E-02  4.722551918704E+00
    16    16    20   -2.406321840512E+00  2.316003275455E+00  1.348804854000E-02
    17    17    20    5.318172737000E-03  4.728984301493E+00  1.228007024100E-02
    18    18    12   -4.666332044002E+00 -8.095022340000E-03 -3.730102050100E-02
    19    19    12    1.460271386910E-01 -2.345266547305E+00 -2.289134339422E+00
    20    20    20    2.329858240028E+00 -4.091837654900E-02 -2.360537603469E+00
    21    21    20   -2.313289572458E+00 -4.664621436508E+00 -2.318898469483E+00
    22    22    12    2.314820946724E+00 -2.309638709844E+00 -2.588719979700E-02
    23    23    12    4.680353769042E+00 -2.996432802000E-03  5.049853128200E-02
    24    24    12    7.396062300500E-02 -4.698860039575E+00 -5.932369558400E-02
    25    25    20   -2.332966017261E+00 -2.305975434452E+00 -4.662471881915E+00
    26    26    12   -3.471645806800E-02  1.411821098900E-02 -4.739503624591E+00
    27    27    20   -4.685590417495E+00 -4.693573794478E+00 -4.732199254361E+00
    28    28     8   -6.906216392000E-03 -9.635325402100E-02 -2.413688079322E+00
    29    29     8    2.333355999697E+00  2.395433625144E+00 -2.342294036227E+00
    30    30     8   -2.366407534144E+00 -2.347256484418E+00 -2.325329675478E+00
    31    31     8    2.379220886546E+00 -7.078074486400E-02 -4.017731985300E-02
    32    32     8    4.741039623522E+00  2.213760877161E+00 -9.257901215000E-03
    33    33     8    1.240974682070E-01 -2.400251994108E+00 -6.770691694000E-02
    34    34     8    4.734016758455E+00  1.018866720000E-03  2.255155355722E+00
    35    35     8    6.998333389794E+00  2.241886824513E+00  2.234303842652E+00
    36    36     8    2.328571898777E+00 -2.339461814080E+00  2.310175978269E+00
    37    37     8   -4.809674288000E-03  2.338689295245E+00  4.992920884000E-03
    38    38     8    2.352677361132E+00  4.737605090044E+00 -3.124760299500E-02
    39    39     8   -2.444696622959E+00  5.867888210000E-03  4.034984697500E-02
    40    40     8    2.332262479609E+00  2.329821944450E+00  2.406777343921E+00
    41    41     8    4.668842780188E+00  4.752377877706E+00  2.310314031626E+00
    42    42     8   -7.197251279300E-02  7.612972640000E-03  2.369291523809E+00
    43    43     8    4.584117540107E+00  2.339899276684E+00  4.660337300078E+00
    44    44     8    7.098966524435E+00  4.660686622212E+00  4.674420519654E+00
    45    45     8    2.321469986664E+00 -4.613944944900E-02  4.779914199363E+00
    46    46     8    5.858947976000E-03  4.766609376904E+00  2.421086780559E+00
    47    47     8    2.355766322566E+00  7.000347051806E+00  2.240925496353E+00
    48    48     8   -2.332480151684E+00  2.231453425524E+00  2.333900532875E+00
    49    49     8    2.247171162997E+00  4.573294274544E+00  4.760830101323E+00
    50    50     8    4.674777435153E+00  6.995989110776E+00  4.669993542747E+00
    51    51     8    1.132262208660E-01  2.441432542087E+00  4.767719898244E+00
    52    52     8    4.560699747422E+00  4.755892307854E+00  6.993131018242E+00
    53    53     8    7.007245124699E+00  7.073950478820E+00  7.098193984937E+00
    54    54     8    2.229052512147E+00  2.313501250636E+00  6.876542043141E+00

 SYMMETRY CHANGED DURING OLD RUN :  INFORMATION ON SPACE GROUP LOST 
 NUMBER OF SYMMETRY OPERATORS         :    1
 *******************************************************************************
 LATTICE PARAMETERS (ANGSTROMS AND DEGREES) - BOHR = 0.5291772083 ANGSTROM
 PRIMITIVE CELL - CENTRING CODE 1/0 VOLUME=   685.843112 - DENSITY  3.310 g/cm^3
         A              B              C           ALPHA      BETA       GAMMA 
     9.90151839     9.89383104     9.89734238    59.957295  60.067425  60.022733
 *******************************************************************************
 ATOMS IN THE ASYMMETRIC UNIT   54 - ATOMS IN THE UNIT CELL:   54
     ATOM                 X/A                 Y/B                 Z/C    
 *******************************************************************************
      1 T  20 CA   -1.742992224629E-03  1.242402156317E-03 -2.921825856597E-03
      2 T  20 CA   -2.434476425969E-03 -1.823276203171E-04  3.359514466882E-01
      3 T  20 CA   -1.161650730218E-03  1.133885013832E-03 -3.310432115682E-01
      4 T  20 CA   -2.550046348637E-06  3.373723200867E-01 -3.203340754290E-03
      5 T  20 CA   -6.418348095231E-03  3.339353243110E-01  3.348549479073E-01
      6 T  20 CA   -5.258760585537E-03  3.330423004765E-01 -3.301146325489E-01
      7 T  20 CA   -1.591914631363E-04 -3.343450938279E-01 -3.486970688862E-03
      8 T  20 CA   -4.040504547178E-03 -3.358266752927E-01  3.368649218439E-01
      9 T  12 MG    6.531213407293E-03 -3.296710325285E-01 -3.398952128133E-01
     10 T  20 CA    3.388167315165E-01  1.929355449875E-03 -3.071931214715E-03
     11 T  20 CA    3.376282507641E-01 -4.344825382251E-03  3.354739924434E-01
     12 T  12 MG    3.336865412650E-01 -1.634438476105E-03 -3.316253928724E-01
     13 T  12 MG    3.494105726055E-01  3.312070822735E-01 -2.474641140390E-03
     14 T  20 CA    3.383808393766E-01  3.291575558493E-01  3.312619673410E-01
     15 T  20 CA    3.377645448096E-01  3.369995337295E-01 -3.347884302636E-01
     16 T  20 CA    3.379566300925E-01 -3.365377734561E-01 -7.104569585918E-03
     17 T  20 CA    3.383822112975E-01 -3.370657682121E-01  3.376376643868E-01
     18 T  12 MG    3.293641511078E-01 -3.352620486884E-01 -3.309552628025E-01
     19 T  12 MG   -3.412979309778E-01  1.445864792738E-02  6.244619033811E-03
     20 T  20 CA   -3.374046853721E-01  4.156887288146E-04  3.319744810106E-01
     21 T  20 CA   -3.338454075100E-01  2.668698647251E-03 -3.329934525709E-01
     22 T  12 MG   -3.318645709519E-01  3.286623578344E-01  1.914826292147E-03
     23 T  12 MG   -3.302144755336E-01  3.380007908730E-01  3.302202251797E-01
     24 T  12 MG   -3.452369957445E-01  3.372057661808E-01 -3.264651088891E-01
     25 T  20 CA   -3.311226653680E-01 -3.351283361884E-01  1.655958415981E-03
     26 T  12 MG   -3.346614230369E-01 -3.425310054572E-01  3.370798760390E-01
     27 T  20 CA   -3.390020903727E-01 -3.372769981287E-01 -3.319923481044E-01
     28 T   8 O    -1.785991765325E-01 -1.662638426896E-01  1.650300605416E-01
     29 T   8 O    -1.622754450282E-01 -1.723325260822E-01 -4.948732234806E-01
     30 T   8 O    -1.649427996432E-01 -1.673743128594E-01 -1.706272307047E-01
     31 T   8 O    -1.775083419128E-01  1.720644476593E-01  1.676163286337E-01
     32 T   8 O    -1.804164443325E-01  1.794663862280E-01  4.973241027205E-01
     33 T   8 O    -1.851735640431E-01  1.757373558123E-01 -1.579312209432E-01
     34 T   8 O    -1.764590753571E-01  4.992560024545E-01  1.768561680572E-01
     35 T   8 O    -1.792316106903E-01  4.991174337826E-01 -4.998196126918E-01
     36 T   8 O    -1.683067757622E-01  4.988889702413E-01 -1.661038373427E-01
     37 T   8 O     1.677980074133E-01 -1.673022036875E-01  1.665227441945E-01
     38 T   8 O     1.685790790691E-01 -1.731964863228E-01 -4.911032631998E-01
     39 T   8 O     1.775495756937E-01 -1.720829916211E-01 -1.769431692242E-01
     40 T   8 O     1.719418399406E-01  1.720100829573E-01  1.611257463915E-01
     41 T   8 O     1.716055168243E-01  1.586237361482E-01 -4.920002794230E-01
     42 T   8 O     1.747134485517E-01  1.638047443575E-01 -1.738335920784E-01
     43 T   8 O     1.729380921437E-01  4.932792819664E-01  1.615891560720E-01
     44 T   8 O     1.605109533783E-01 -4.921900249463E-01 -4.939868472593E-01
     45 T   8 O     1.722628949477E-01 -4.890147221992E-01 -1.790481120335E-01
     46 T   8 O    -4.871092851409E-01 -1.674040362368E-01  1.683027525183E-01
     47 T   8 O     4.921419237486E-01 -1.723176525064E-01 -4.913944856846E-01
     48 T   8 O     4.922044849360E-01 -1.592250079372E-01 -1.736296605263E-01
     49 T   8 O    -4.937450833932E-01  1.738287995154E-01  1.473144187330E-01
     50 T   8 O     4.998418737700E-01  1.673342179408E-01 -4.997069836653E-01
     51 T   8 O    -4.934727336051E-01  1.744784675833E-01 -1.579134956354E-01
     52 T   8 O    -4.863349291726E-01  4.856380879344E-01  1.660337892242E-01
     53 T   8 O    -4.875975245981E-01 -4.980045251325E-01  4.988889572021E-01
     54 T   8 O     4.970321315377E-01  4.855549313581E-01 -1.666878053015E-01

 T = ATOM BELONGING TO THE ASYMMETRIC UNIT
 *******************************************************************************
 * GEOMETRY EDITING - INPUT COORDINATES ARE GIVEN IN ANGSTROM         
 *******************************************************************************

 GCALCO - MAX INDICES DIRECT LATTICE VECTOR    14    15    15
 NO.OF VECTORS CREATED 6999 STARS 3500 RMAX   198.05664 BOHR

 GEOMETRY FOR WAVE FUNCTION - DIMENSIONALITY OF THE SYSTEM    3
 (NON PERIODIC DIRECTION: LATTICE PARAMETER FORMALLY SET TO 500)
 *******************************************************************************
 LATTICE PARAMETERS (ANGSTROMS AND DEGREES) - BOHR = 0.5291772083 ANGSTROM
 PRIMITIVE CELL - CENTRING CODE 1/0 VOLUME=   685.843112 - DENSITY  3.310 g/cm^3
         A              B              C           ALPHA      BETA       GAMMA 
     9.90151839     9.89383104     9.89734238    59.957295  60.067425  60.022733
 *******************************************************************************
 ATOMS IN THE ASYMMETRIC UNIT   54 - ATOMS IN THE UNIT CELL:   54
     ATOM                 X/A                 Y/B                 Z/C    
 *******************************************************************************
      1 T  20 CA   -1.742992224629E-03  1.242402156317E-03 -2.921825856597E-03
      2 T  20 CA   -2.434476425969E-03 -1.823276203171E-04  3.359514466882E-01
      3 T  20 CA   -1.161650730218E-03  1.133885013832E-03 -3.310432115682E-01
      4 T  20 CA   -2.550046348609E-06  3.373723200867E-01 -3.203340754290E-03
      5 T  20 CA   -6.418348095231E-03  3.339353243110E-01  3.348549479073E-01
      6 T  20 CA   -5.258760585537E-03  3.330423004765E-01 -3.301146325489E-01
      7 T  20 CA   -1.591914631363E-04 -3.343450938279E-01 -3.486970688862E-03
      8 T  20 CA   -4.040504547178E-03 -3.358266752927E-01  3.368649218439E-01
      9 T  12 MG    6.531213407293E-03 -3.296710325285E-01 -3.398952128133E-01
     10 T  20 CA    3.388167315165E-01  1.929355449875E-03 -3.071931214715E-03
     11 T  20 CA    3.376282507641E-01 -4.344825382251E-03  3.354739924434E-01
     12 T  12 MG    3.336865412650E-01 -1.634438476105E-03 -3.316253928724E-01
     13 T  12 MG    3.494105726055E-01  3.312070822735E-01 -2.474641140391E-03
     14 T  20 CA    3.383808393766E-01  3.291575558493E-01  3.312619673410E-01
     15 T  20 CA    3.377645448096E-01  3.369995337295E-01 -3.347884302636E-01
     16 T  20 CA    3.379566300925E-01 -3.365377734561E-01 -7.104569585918E-03
     17 T  20 CA    3.383822112975E-01 -3.370657682121E-01  3.376376643868E-01
     18 T  12 MG    3.293641511078E-01 -3.352620486884E-01 -3.309552628025E-01
     19 T  12 MG   -3.412979309778E-01  1.445864792738E-02  6.244619033812E-03
     20 T  20 CA   -3.374046853721E-01  4.156887288147E-04  3.319744810106E-01
     21 T  20 CA   -3.338454075100E-01  2.668698647251E-03 -3.329934525709E-01
     22 T  12 MG   -3.318645709519E-01  3.286623578344E-01  1.914826292147E-03
     23 T  12 MG   -3.302144755336E-01  3.380007908730E-01  3.302202251797E-01
     24 T  12 MG   -3.452369957445E-01  3.372057661808E-01 -3.264651088891E-01
     25 T  20 CA   -3.311226653680E-01 -3.351283361884E-01  1.655958415981E-03
     26 T  12 MG   -3.346614230369E-01 -3.425310054572E-01  3.370798760390E-01
     27 T  20 CA   -3.390020903727E-01 -3.372769981287E-01 -3.319923481044E-01
     28 T   8 O    -1.785991765325E-01 -1.662638426896E-01  1.650300605416E-01
     29 T   8 O    -1.622754450282E-01 -1.723325260822E-01 -4.948732234806E-01
     30 T   8 O    -1.649427996432E-01 -1.673743128594E-01 -1.706272307047E-01
     31 T   8 O    -1.775083419128E-01  1.720644476593E-01  1.676163286337E-01
     32 T   8 O    -1.804164443325E-01  1.794663862280E-01  4.973241027205E-01
     33 T   8 O    -1.851735640431E-01  1.757373558123E-01 -1.579312209432E-01
     34 T   8 O    -1.764590753571E-01  4.992560024545E-01  1.768561680572E-01
     35 T   8 O    -1.792316106903E-01  4.991174337826E-01 -4.998196126918E-01
     36 T   8 O    -1.683067757622E-01  4.988889702413E-01 -1.661038373427E-01
     37 T   8 O     1.677980074133E-01 -1.673022036875E-01  1.665227441945E-01
     38 T   8 O     1.685790790691E-01 -1.731964863228E-01 -4.911032631998E-01
     39 T   8 O     1.775495756937E-01 -1.720829916211E-01 -1.769431692242E-01
     40 T   8 O     1.719418399406E-01  1.720100829573E-01  1.611257463915E-01
     41 T   8 O     1.716055168243E-01  1.586237361482E-01 -4.920002794230E-01
     42 T   8 O     1.747134485517E-01  1.638047443575E-01 -1.738335920784E-01
     43 T   8 O     1.729380921437E-01  4.932792819664E-01  1.615891560720E-01
     44 T   8 O     1.605109533783E-01 -4.921900249463E-01 -4.939868472593E-01
     45 T   8 O     1.722628949477E-01 -4.890147221992E-01 -1.790481120335E-01
     46 T   8 O    -4.871092851409E-01 -1.674040362368E-01  1.683027525183E-01
     47 T   8 O     4.921419237486E-01 -1.723176525064E-01 -4.913944856846E-01
     48 T   8 O     4.922044849360E-01 -1.592250079372E-01 -1.736296605263E-01
     49 T   8 O    -4.937450833932E-01  1.738287995154E-01  1.473144187330E-01
     50 T   8 O     4.998418737700E-01  1.673342179408E-01 -4.997069836653E-01
     51 T   8 O    -4.934727336051E-01  1.744784675833E-01 -1.579134956354E-01
     52 T   8 O    -4.863349291726E-01  4.856380879344E-01  1.660337892242E-01
     53 T   8 O    -4.875975245981E-01 -4.980045251325E-01  4.988889572021E-01
     54 T   8 O     4.970321315377E-01  4.855549313581E-01 -1.666878053015E-01

 T = ATOM BELONGING TO THE ASYMMETRIC UNIT

 ****    1 SYMMOPS - TRANSLATORS IN FRACTIONAL UNITS
 **** MATRICES AND TRANSLATORS IN THE CRYSTALLOGRAPHIC REFERENCE FRAME
   V INV                    ROTATION MATRICES                   TRANSLATORS
   1   1  1.00  0.00  0.00  0.00  1.00  0.00  0.00  0.00  1.00  0.00  0.00  0.00

 DIRECT LATTICE VECTORS CARTESIAN COMPONENTS (ANGSTROM)
          X                    Y                    Z
  -0.315784855523E-02   0.699950018737E+01   0.700336016550E+01
   0.699915045511E+01  -0.421795761289E-03   0.699283814702E+01
   0.700621111627E+01   0.699073600538E+01  -0.143961150243E-02


 CARTESIAN COORDINATES - PRIMITIVE CELL
 *******************************************************************************
 *      ATOM          X(ANGSTROM)         Y(ANGSTROM)         Z(ANGSTROM)
 *******************************************************************************
    1    20 CA   -1.176966507300E-02 -3.262631166000E-02 -3.514678828000E-03
    2    20 CA    2.352478309575E+00  2.331507833128E+00 -1.880814233100E-02
    3    20 CA   -2.311418728727E+00 -2.322367151218E+00  2.701895439999E-04
    4    20 CA    2.338876354127E+00 -2.255386081300E-02  2.359176782324E+00
    5    20 CA    4.683348303666E+00  2.295816459716E+00  2.289723610066E+00
    6    20 CA    1.817696711300E-02 -2.344693419197E+00  2.292557145761E+00
    7    20 CA   -2.364561565729E+00 -2.534972687700E-02 -2.339130981657E+00
    8    20 CA    9.658092193001E-03  2.326793876017E+00 -2.377163648984E+00
    9    12 MG   -4.688815400321E+00 -2.330263418958E+00 -2.259106415366E+00
   10    20 CA   -9.088681476000E-03  2.350071901791E+00  2.386351693684E+00
   11    20 CA    2.318925349641E+00  4.708440954956E+00  2.333666629255E+00
   12    12 MG   -2.335930926346E+00  1.733412325500E-02  2.325975078864E+00
   13    12 MG    2.299726956692E+00  2.428260103757E+00  4.763129167597E+00
   14    20 CA    4.623645979363E+00  4.684122873661E+00  4.671071515643E+00
   15    20 CA    1.204540888300E-02  2.362331607800E-02  4.722551918704E+00
   16    20 CA   -2.406321840512E+00  2.316003275455E+00  1.348804854000E-02
   17    20 CA    5.318172736999E-03  4.728984301493E+00  1.228007024100E-02
   18    12 MG   -4.666332044002E+00 -8.095022340000E-03 -3.730102050100E-02
   19    12 MG    1.460271386910E-01 -2.345266547305E+00 -2.289134339422E+00
   20    20 CA    2.329858240028E+00 -4.091837654900E-02 -2.360537603469E+00
   21    20 CA   -2.313289572458E+00 -4.664621436508E+00 -2.318898469483E+00
   22    12 MG    2.314820946724E+00 -2.309638709844E+00 -2.588719979700E-02
   23    12 MG    4.680353769042E+00 -2.996432801999E-03  5.049853128200E-02
   24    12 MG    7.396062300500E-02 -4.698860039575E+00 -5.932369558400E-02
   25    20 CA   -2.332966017261E+00 -2.305975434452E+00 -4.662471881915E+00
   26    12 MG   -3.471645806800E-02  1.411821098900E-02 -4.739503624591E+00
   27    20 CA   -4.685590417495E+00 -4.693573794478E+00 -4.732199254361E+00
   28     8 O    -6.906216392000E-03 -9.635325402100E-02 -2.413688079322E+00
   29     8 O     2.333355999697E+00  2.395433625144E+00 -2.342294036227E+00
   30     8 O    -2.366407534144E+00 -2.347256484418E+00 -2.325329675478E+00
   31     8 O     2.379220886546E+00 -7.078074486400E-02 -4.017731985300E-02
   32     8 O     4.741039623522E+00  2.213760877161E+00 -9.257901215000E-03
   33     8 O     1.240974682070E-01 -2.400251994108E+00 -6.770691694000E-02
   34     8 O     4.734016758455E+00  1.018866720001E-03  2.255155355722E+00
   35     8 O     6.998333389794E+00  2.241886824513E+00  2.234303842652E+00
   36     8 O     2.328571898777E+00 -2.339461814080E+00  2.310175978269E+00
   37     8 O    -4.809674288000E-03  2.338689295245E+00  4.992920884000E-03
   38     8 O     2.352677361132E+00  4.737605090044E+00 -3.124760299500E-02
   39     8 O    -2.444696622959E+00  5.867888210000E-03  4.034984697500E-02
   40     8 O     2.332262479609E+00  2.329821944450E+00  2.406777343921E+00
   41     8 O     4.668842780188E+00  4.752377877706E+00  2.310314031626E+00
   42     8 O    -7.197251279300E-02  7.612972640000E-03  2.369291523809E+00
   43     8 O     4.584117540107E+00  2.339899276684E+00  4.660337300078E+00
   44     8 O     7.098966524435E+00  4.660686622212E+00  4.674420519654E+00
   45     8 O     2.321469986664E+00 -4.613944944900E-02  4.779914199363E+00
   46     8 O     5.858947976000E-03  4.766609376904E+00  2.421086780559E+00
   47     8 O     2.355766322566E+00  7.000347051806E+00  2.240925496353E+00
   48     8 O    -2.332480151684E+00  2.231453425524E+00  2.333900532875E+00
   49     8 O     2.247171162997E+00  4.573294274544E+00  4.760830101323E+00
   50     8 O     4.674777435153E+00  6.995989110776E+00  4.669993542747E+00
   51     8 O     1.132262208660E-01  2.441432542087E+00  4.767719898244E+00
   52     8 O     4.560699747422E+00  4.755892307854E+00  6.993131018242E+00
   53     8 O     7.007245124699E+00  7.073950478820E+00  7.098193984937E+00
   54     8 O     2.229052512147E+00  2.313501250636E+00  6.876542043141E+00
 WARNING **** CRYSTA **** TESTGEOM  DIRECTIVE - GEOMETRY EDITING COMPLETE
 TTTTTTTTTTTTTTTTTTTTTTTTTTTTTT END         TELAPSE        0.01 TCPU        0.01
 EEEEEEEEEE TERMINATION  DATE 10 03 2023 TIME 10:31:04.8
Fri 10 Mar 2023 10:31:04 GMT
Contents of temporary directory:
total 8
-rw-r--r--  1 brunocamino  admin  4027 10 Mar 10:31 fort.34
SCF abnormal end - no wf written in fort.9
geometry input file fort.34 saved as /Users/brunocamino/Desktop/Imperial/cmsg_icl/solid-solutions/./data/crystal/testgeom_opt/CaMgO_testgeom_2468.gui
temporary directory /Users/brunocamino/crystal/tmp removed
