date Fri 10 Mar 2023 10:28:52 GMT
hostname MacBook-Pro-8
system Darwin MacBook-Pro-8 21.6.0 Darwin Kernel Version 21.6.0: Mon Aug 22 20:20:05 PDT 2022; root:xnu-8020.140.49~2/RELEASE_ARM64_T8101 arm64
user brunocamino
output data in /Users/brunocamino/Desktop/Imperial/cmsg_icl/solid-solutions/./data/crystal/testgeom_opt/CaMgO_testgeom_819.out
crystal executable in /Users/brunocamino/crystal
input data in /Users/brunocamino/Desktop/Imperial/cmsg_icl/solid-solutions/./data/crystal/testgeom_opt/CaMgO_testgeom_819.d12
temporary directory /Users/brunocamino/crystal/tmp
external geometry input from /Users/brunocamino/Desktop/Imperial/cmsg_icl/solid-solutions/./data/crystal/testgeom_opt/CaMgO_testgeom_819.gui
external geometry input saved in /Users/brunocamino/Desktop/Imperial/cmsg_icl/solid-solutions/./data/crystal/testgeom_opt/CaMgO_testgeom_819_inp.gui
Bulk 
EXTERNAL
EXTPRT
TESTGEOM
END

         
 *******************************************************************************
 *                                                                             *
 *                               CRYSTAL17                                     *
 *                      public : 1.0.1 - Feb 1st, 2017                         *
 *                       HTTP://WWW.CRYSTAL.UNITO.IT                           *
 *                                                                             *
 *                              MAIN AUTHORS                                   *
 *                                                                             *
 *  R. DOVESI(1,11), V.R. SAUNDERS(2), C. ROETTI(1,11), R. ORLANDO(1,11),      *
 *  C.M. ZICOVICH-WILSON(1,3), F. PASCALE(4), B. CIVALLERI(1,11),              *
 *  K. DOLL(5), N.M. HARRISON(2,6), I.J. BUSH(7), Ph. D'ARCO(8),               *
 *  M. LLUNELL(9), M. CAUSA'(10), Y. NOEL(8), L. MASCHIO(1,11), A. ERBA(1,11)  *
 *  M. RE'RAT(14), S. CASASSA(1,11)                                            *
 *                                                                             *
 *        CONTRIBUTIONS TO THE CODE HAVE ALSO BEEN GIVEN BY                    *
 *                                                                             *
 *  M. FERRABONE(1,11), M. DE LA PIERRE(1,11), M. FERRERO(1,11),               *
 *  J. BAIMA(1,11), E. ALBANESE(1,11), M.F. PEINTINGER(12), R. BAST(13),       *
 *  B. KIRTMAN(15), V. LACIVITA(1,11), R. DEMICHELIS(1,16)                     *
 *  G. BRANDEBURG(17), S. SALUSTRO(1,11), G. SANSONE(1,11)                     *
 *  M.T. RUGGIERO(18)                                                          *
 *                                                                             *
 * (1) THEORETICAL CHEMISTRY GROUP - UNIVERSITA' DI TORINO - TORINO (ITALY)    *

 * (2) COMPUTATIONAL SCIENCE & ENGINEERING DEPARTMENT - STFC DARESBURY (UK)    *
 * (3) UNIVERSIDAD AUTONOMA DEL ESTADO DE MORELOS - CUERNAVACA (MEXICO)        *
 * (4) UNIVERSITE' DE LORRAINE - NANCY (FRANCE)                                *
 * (5) UNIVERSITAET STUTTGART- STUTTGART (GERMANY)                             *
 * (6) IMPERIAL COLLEGE - LONDON (UK)                                          *
 * (7) OXFORD E-RESEARCH CENTRE - OXFORD (UK)                                  *
 * (8) UPMC - SORBONNE UNIVERSITES - PARIS (FRANCE)                            *
 * (9) UNIVERSIDAD DE BARCELONA - BARCELONA (SPAIN)                            *
 *(10) UNIVERSITA' DI NAPOLI "FEDERICO II" - NAPOLI (ITALY)                    *
 *(11) NIS - NANOSTRUCTURED INTERFACES AND SURFACES - TORINO (ITALY)           *
 *(12) MPI FUER CHEMISCHE ENERGIEKONVERSION - MUELHEIM AN DER RUHR (GERMANY)   *
 *(13) UNIVERSITY OF TROMSO - TROMSO (NORWAY)                                  *
 *(14) UNIVERSITE' DE PAU ET DES PAYS DE L'ADOUR - PAU (FRANCE)                *
 *(15) UNIVERSITY OF CALIFORNIA SANTA BARBARA - SANTA BARBARA (USA)            *
 *(16) CURTIN UNIVERSITY - PERTH (AUSTRALIA)                                   *
 *(17) UNIVERSITY COLLEGE LONDON - LONDON (UK)                                 *
 *(18) CAMBRIDGE UNIVERSITY - CAMBRIDGE (UK)                                   *
 *                                                                             *
 *******************************************************************************
 EEEEEEEEEE STARTING  DATE 10 03 2023 TIME 10:28:52.3
 Bulk                                                                            

 GEOMETRY INPUT FROM EXTERNAL FILE (FORTRAN UNIT 34)
 3D - CRYSTAL 

 *******************************************************************************
 LATTICE PARAMETERS  (ANGSTROMS AND DEGREES) - PRIMITIVE CELL
       A          B          C        ALPHA      BETA     GAMMA        VOLUME
    9.93339    9.91135    9.90811    60.13646  60.06059  59.97722    690.678662
 INFORMATION **** CHKGRP **** SPGR WITH NO INVERSION

 NUMBER OF IRREDUCIBLE ATOMS IN THE CELL:   54

 CARTESIAN COORDINATES (ANGSTROM) - IRREDUCIBLE ATOMS AND SYMMETRY RELATED

 AT.IRR.  AT  AT.N.          X                   Y                   Z
     1     1    20    9.817499490000E-03 -3.079601270000E-03 -2.092945446500E-02
     2     2    20    2.330772699136E+00  2.321085052024E+00 -6.889788389300E-02
     3     3    20   -2.330687392657E+00 -2.328461314156E+00 -2.634501791400E-02
     4     4    20    2.339655778263E+00 -2.986389906300E-02  2.341481264913E+00
     5     5    20    4.694618413505E+00  2.293960526500E+00  2.300952709364E+00
     6     6    20    3.672497026700E-02 -2.336670740327E+00  2.357151711785E+00
     7     7    20   -2.341663137355E+00 -1.656950500600E-02 -2.334444913717E+00
     8     8    20    1.115970657100E-02  2.315713182266E+00 -2.354638371337E+00
     9     9    12   -4.742677493109E+00 -2.241300096434E+00 -2.280419767624E+00
    10    10    20   -2.878186363600E-02  2.356112028018E+00  2.403644575945E+00
    11    11    20    2.290629372756E+00  4.718537273657E+00  2.349987379425E+00
    12    12    20   -2.375954805918E+00  2.332601578700E-02  2.343595624720E+00
    13    13    20    2.329259907626E+00  2.335800044143E+00  4.747898272764E+00
    14    14    20    4.638244555038E+00  4.701952810150E+00  4.736811844489E+00
    15    15    12    8.963571691300E-02 -4.595922440600E-02  4.725275954003E+00
    16    16    12   -2.385126032081E+00  2.286251971583E+00  5.296607815000E-03
    17    17    20   -3.062621602500E-02  4.729919332327E+00 -8.110288740000E-03
    18    18    12   -4.690040600803E+00 -2.957130148000E-02 -6.096772371300E-02
    19    19    12    8.887580230300E-02 -2.217034221237E+00 -2.351258252675E+00
    20    20    12    2.324113746818E+00 -8.457175732700E-02 -2.311197600859E+00
    21    21    20   -2.326682781334E+00 -4.693625362613E+00 -2.313877181695E+00
    22    22    12    2.386815288550E+00 -2.249418766511E+00 -7.433818103600E-02
    23    23    12    4.580793648584E+00 -1.118606291000E-02 -4.964234044300E-02
    24    24    20    4.787572295300E-02 -4.732130832082E+00 -3.336678669900E-02
    25    25    20   -2.332458782401E+00 -2.324180439786E+00 -4.719456388752E+00
    26    26    12    4.465668862400E-02 -1.921282889200E-02 -4.658540546979E+00
    27    27    20   -4.661336153520E+00 -4.692796082038E+00 -4.691534267401E+00
    28    28     8    1.032104241940E-01 -1.007717392660E-01 -2.395051981810E+00
    29    29     8    2.316629628526E+00  2.331313706709E+00 -2.337801687916E+00
    30    30     8   -2.320378389908E+00 -2.325521183706E+00 -2.326348095893E+00
    31    31     8    2.420091604288E+00 -8.231271468700E-02 -7.647489466300E-02
    32    32     8    4.668000764369E+00  2.235711430543E+00 -9.763200971000E-03
    33    33     8    1.300551633210E-01 -2.334482261744E+00 -4.322527688700E-02
    34    34     8    4.737666742766E+00 -5.886223800000E-05  2.281398522272E+00
    35    35     8    6.997711086962E+00  2.223739513701E+00  2.329136318631E+00
    36    36     8    2.326666648791E+00 -2.330565364218E+00  2.343200291827E+00
    37    37     8   -9.600072135600E-02  2.344811667516E+00 -9.215677240000E-04
    38    38     8    2.337178763594E+00  4.776557453885E+00 -7.652357120800E-02
    39    39     8   -2.433257938927E+00  8.772948040100E-02 -2.653235241000E-03
    40    40     8    2.334572865875E+00  2.336795564757E+00  2.342645412785E+00
    41    41     8    4.662216510286E+00  4.667363367815E+00  2.318828628513E+00
    42    42     8   -2.889149976000E-03  1.789225113000E-03  2.391574762981E+00
    43    43     8    4.677152830606E+00  2.334531116869E+00  4.758595341681E+00
    44    44     8    7.096980200847E+00  4.779914948151E+00  4.683936280498E+00
    45    45     8    2.232954602194E+00 -1.039615012460E-01  4.763323020030E+00
    46    46     8   -5.059151724000E-03  4.794684891910E+00  2.407845246516E+00
    47    47     8    2.226007588081E+00  7.003014772761E+00  2.354387301169E+00
    48    48     8   -2.326772331858E+00  2.342347252169E+00  2.321774915515E+00
    49    49     8    2.227487848845E+00  4.774312699808E+00  4.763948782054E+00
    50    50     8    4.614954129455E+00  6.996651065748E+00  4.729031270109E+00
    51    51     8    1.857378367400E-02  2.302983959084E+00  4.690028290139E+00
    52    52     8    4.526013897147E+00  4.720780226081E+00  7.014838152999E+00
    53    53     8    7.029240230172E+00  7.004902391101E+00  6.988572525960E+00
    54    54     8    2.466984788719E+00  2.295469317217E+00  7.025914244208E+00

 SYMMETRY CHANGED DURING OLD RUN :  INFORMATION ON SPACE GROUP LOST 
 NUMBER OF SYMMETRY OPERATORS         :    1
 *******************************************************************************
 LATTICE PARAMETERS (ANGSTROMS AND DEGREES) - BOHR = 0.5291772083 ANGSTROM
 PRIMITIVE CELL - CENTRING CODE 1/0 VOLUME=   690.678662 - DENSITY  3.287 g/cm^3
         A              B              C           ALPHA      BETA       GAMMA 
     9.93339369     9.91135178     9.90810826    60.136463  60.060592  59.977224
 *******************************************************************************
 ATOMS IN THE ASYMMETRIC UNIT   54 - ATOMS IN THE UNIT CELL:   54
     ATOM                 X/A                 Y/B                 Z/C    
 *******************************************************************************
      1 T  20 CA   -2.406587971859E-03 -5.699265153893E-04  1.969621891032E-03
      2 T  20 CA   -5.656007069489E-03 -3.852657876116E-03  3.367395103048E-01
      3 T  20 CA   -1.645265645099E-03 -2.398156544806E-03 -3.304873809915E-01
      4 T  20 CA   -2.417285380456E-03  3.359485819935E-01 -1.542729845152E-03
      5 T  20 CA   -7.585442322099E-03  3.356484162106E-01  3.351022453538E-01
      6 T  20 CA   -1.511592576065E-03  3.369815950532E-01 -3.314922173190E-01
      7 T  20 CA   -2.469466585421E-04 -3.322822313725E-01 -2.409958457850E-03
      8 T  20 CA   -3.214747724048E-03 -3.318897800622E-01  3.332391902606E-01
      9 T  12 MG    1.622049021157E-02 -3.413704918384E-01 -3.362409441771E-01
     10 T  20 CA    3.407239422836E-01  1.229446191494E-03 -5.044560310934E-03
     11 T  20 CA    3.399054604223E-01 -5.294919389420E-03  3.327461868992E-01
     12 T  20 CA    3.375497215666E-01 -4.437952528097E-03 -3.346209651530E-01
     13 T  20 CA    3.378739328904E-01  3.380078014170E-01 -4.790838715226E-03
     14 T  20 CA    3.410898398339E-01  3.335048351485E-01  3.294942854710E-01
     15 T  12 MG    3.262078647899E-01  3.461754294988E-01 -3.328388017213E-01
     16 T  12 MG    3.331851275663E-01 -3.328546542519E-01 -7.757101127878E-03
     17 T  20 CA    3.385140467296E-01 -3.397958949622E-01  3.354670917732E-01
     18 T  12 MG    3.277660894296E-01 -3.371556321692E-01 -3.326652864159E-01
     19 T  12 MG   -3.313761834122E-01 -3.117514731427E-03  1.552230807286E-02
     20 T  12 MG   -3.359152542668E-01  7.407151476879E-03  3.242511002188E-01
     21 T  20 CA   -3.329952050419E-01  3.516706417735E-03 -3.361126484888E-01
     22 T  12 MG   -3.355893233906E-01  3.254340929196E-01  1.541144776718E-02
     23 T  12 MG   -3.307464860360E-01  3.243815181247E-01  3.298242320818E-01
     24 T  20 CA   -3.428489037940E-01  3.382315883548E-01 -3.314439995897E-01
     25 T  20 CA   -3.347967045572E-01 -3.370387706848E-01  3.368294064181E-03
     26 T  12 MG   -3.356760112528E-01 -3.271892033690E-01  3.330386356367E-01
     27 T  20 CA   -3.355738438848E-01 -3.325819584607E-01 -3.337097945691E-01
     28 T   8 O    -1.847708931820E-01 -1.560072116369E-01  1.704748539642E-01
     29 T   8 O    -1.651914735618E-01 -1.671662171673E-01  4.977761133051E-01
     30 T   8 O    -1.656528207104E-01 -1.656608836039E-01 -1.660130545826E-01
     31 T   8 O    -1.837513011873E-01  1.732406836659E-01  1.723781034864E-01
     32 T   8 O    -1.740815701492E-01  1.733458756521E-01  4.933408516869E-01
     33 T   8 O    -1.786231621626E-01  1.725531673699E-01 -1.540068057866E-01
     34 T   8 O    -1.754439567495E-01 -4.992091797495E-01  1.760832956424E-01
     35 T   8 O    -1.746992334650E-01 -4.928745080784E-01  4.925465969809E-01
     36 T   8 O    -1.652465217630E-01  4.990803435756E-01 -1.665517468992E-01
     37 T   8 O     1.737943211019E-01 -1.740011407108E-01  1.603134008846E-01
     38 T   8 O     1.682466913316E-01 -1.789033847486E-01 -4.872718388006E-01
     39 T   8 O     1.794509840968E-01 -1.802018060032E-01 -1.673062638876E-01
     40 T   8 O     1.666028062937E-01  1.670317447059E-01  1.666713515762E-01
     41 T   8 O     1.650495481158E-01  1.654902886677E-01 -4.993420170663E-01
     42 T   8 O     1.703245362080E-01  1.699766619294E-01 -1.701181598583E-01
     43 T   8 O     1.712362056524E-01 -4.934743440757E-01  1.620096238451E-01
     44 T   8 O     1.676784794980E-01  4.997652903988E-01 -4.856241528490E-01
     45 T   8 O     1.720507549838E-01 -4.939253654291E-01 -1.866336257908E-01
     46 T   8 O    -4.869704519589E-01 -1.705383129517E-01  1.701353965521E-01
     47 T   8 O    -4.924555435364E-01 -1.723771749640E-01  4.906221387697E-01
     48 T   8 O     4.976759593535E-01 -1.677219803212E-01 -1.642927867524E-01
     49 T   8 O    -4.800398848790E-01  1.581264688283E-01  1.605813495207E-01
     50 T   8 O    -4.943541450879E-01  1.677784105286E-01  4.919159122637E-01
     51 T   8 O     4.960794945160E-01  1.712163500794E-01 -1.680096503749E-01
     52 T   8 O    -4.876514127687E-01  4.863731469279E-01  1.608560327281E-01
     53 T   8 O     4.948011984479E-01 -4.994946482256E-01 -4.957556761943E-01
     54 T   8 O     4.871066668224E-01 -4.870596927106E-01 -1.597961652811E-01

 T = ATOM BELONGING TO THE ASYMMETRIC UNIT
 *******************************************************************************
 * GEOMETRY EDITING - INPUT COORDINATES ARE GIVEN IN ANGSTROM         
 *******************************************************************************

 GCALCO - MAX INDICES DIRECT LATTICE VECTOR    14    15    15
 NO.OF VECTORS CREATED 6999 STARS 3500 RMAX   198.55135 BOHR

 GEOMETRY FOR WAVE FUNCTION - DIMENSIONALITY OF THE SYSTEM    3
 (NON PERIODIC DIRECTION: LATTICE PARAMETER FORMALLY SET TO 500)
 *******************************************************************************
 LATTICE PARAMETERS (ANGSTROMS AND DEGREES) - BOHR = 0.5291772083 ANGSTROM
 PRIMITIVE CELL - CENTRING CODE 1/0 VOLUME=   690.678662 - DENSITY  3.287 g/cm^3
         A              B              C           ALPHA      BETA       GAMMA 
     9.93339369     9.91135178     9.90810826    60.136463  60.060592  59.977224
 *******************************************************************************
 ATOMS IN THE ASYMMETRIC UNIT   54 - ATOMS IN THE UNIT CELL:   54
     ATOM                 X/A                 Y/B                 Z/C    
 *******************************************************************************
      1 T  20 CA   -2.406587971859E-03 -5.699265153893E-04  1.969621891032E-03
      2 T  20 CA   -5.656007069489E-03 -3.852657876116E-03  3.367395103048E-01
      3 T  20 CA   -1.645265645099E-03 -2.398156544806E-03 -3.304873809915E-01
      4 T  20 CA   -2.417285380456E-03  3.359485819935E-01 -1.542729845152E-03
      5 T  20 CA   -7.585442322099E-03  3.356484162106E-01  3.351022453538E-01
      6 T  20 CA   -1.511592576065E-03  3.369815950532E-01 -3.314922173190E-01
      7 T  20 CA   -2.469466585420E-04 -3.322822313725E-01 -2.409958457850E-03
      8 T  20 CA   -3.214747724048E-03 -3.318897800622E-01  3.332391902606E-01
      9 T  12 MG    1.622049021157E-02 -3.413704918384E-01 -3.362409441771E-01
     10 T  20 CA    3.407239422836E-01  1.229446191494E-03 -5.044560310934E-03
     11 T  20 CA    3.399054604223E-01 -5.294919389420E-03  3.327461868992E-01
     12 T  20 CA    3.375497215666E-01 -4.437952528096E-03 -3.346209651530E-01
     13 T  20 CA    3.378739328904E-01  3.380078014170E-01 -4.790838715226E-03
     14 T  20 CA    3.410898398339E-01  3.335048351485E-01  3.294942854710E-01
     15 T  12 MG    3.262078647899E-01  3.461754294988E-01 -3.328388017213E-01
     16 T  12 MG    3.331851275663E-01 -3.328546542519E-01 -7.757101127878E-03
     17 T  20 CA    3.385140467296E-01 -3.397958949622E-01  3.354670917732E-01
     18 T  12 MG    3.277660894296E-01 -3.371556321692E-01 -3.326652864159E-01
     19 T  12 MG   -3.313761834122E-01 -3.117514731427E-03  1.552230807286E-02
     20 T  12 MG   -3.359152542668E-01  7.407151476879E-03  3.242511002188E-01
     21 T  20 CA   -3.329952050419E-01  3.516706417735E-03 -3.361126484888E-01
     22 T  12 MG   -3.355893233906E-01  3.254340929196E-01  1.541144776718E-02
     23 T  12 MG   -3.307464860360E-01  3.243815181247E-01  3.298242320818E-01
     24 T  20 CA   -3.428489037940E-01  3.382315883548E-01 -3.314439995897E-01
     25 T  20 CA   -3.347967045572E-01 -3.370387706848E-01  3.368294064181E-03
     26 T  12 MG   -3.356760112528E-01 -3.271892033690E-01  3.330386356367E-01
     27 T  20 CA   -3.355738438848E-01 -3.325819584607E-01 -3.337097945691E-01
     28 T   8 O    -1.847708931820E-01 -1.560072116369E-01  1.704748539642E-01
     29 T   8 O    -1.651914735618E-01 -1.671662171673E-01  4.977761133051E-01
     30 T   8 O    -1.656528207104E-01 -1.656608836039E-01 -1.660130545826E-01
     31 T   8 O    -1.837513011873E-01  1.732406836659E-01  1.723781034864E-01
     32 T   8 O    -1.740815701492E-01  1.733458756521E-01  4.933408516869E-01
     33 T   8 O    -1.786231621626E-01  1.725531673699E-01 -1.540068057866E-01
     34 T   8 O    -1.754439567495E-01 -4.992091797495E-01  1.760832956424E-01
     35 T   8 O    -1.746992334650E-01 -4.928745080784E-01  4.925465969809E-01
     36 T   8 O    -1.652465217630E-01  4.990803435756E-01 -1.665517468992E-01
     37 T   8 O     1.737943211019E-01 -1.740011407108E-01  1.603134008846E-01
     38 T   8 O     1.682466913316E-01 -1.789033847486E-01 -4.872718388006E-01
     39 T   8 O     1.794509840968E-01 -1.802018060032E-01 -1.673062638876E-01
     40 T   8 O     1.666028062937E-01  1.670317447059E-01  1.666713515762E-01
     41 T   8 O     1.650495481158E-01  1.654902886677E-01 -4.993420170663E-01
     42 T   8 O     1.703245362080E-01  1.699766619294E-01 -1.701181598583E-01
     43 T   8 O     1.712362056524E-01 -4.934743440757E-01  1.620096238451E-01
     44 T   8 O     1.676784794980E-01  4.997652903988E-01 -4.856241528490E-01
     45 T   8 O     1.720507549838E-01 -4.939253654291E-01 -1.866336257908E-01
     46 T   8 O    -4.869704519589E-01 -1.705383129517E-01  1.701353965521E-01
     47 T   8 O    -4.924555435364E-01 -1.723771749640E-01  4.906221387697E-01
     48 T   8 O     4.976759593535E-01 -1.677219803212E-01 -1.642927867524E-01
     49 T   8 O    -4.800398848790E-01  1.581264688283E-01  1.605813495207E-01
     50 T   8 O    -4.943541450879E-01  1.677784105286E-01  4.919159122637E-01
     51 T   8 O     4.960794945160E-01  1.712163500794E-01 -1.680096503749E-01
     52 T   8 O    -4.876514127687E-01  4.863731469279E-01  1.608560327281E-01
     53 T   8 O     4.948011984479E-01 -4.994946482256E-01 -4.957556761943E-01
     54 T   8 O     4.871066668224E-01 -4.870596927106E-01 -1.597961652811E-01

 T = ATOM BELONGING TO THE ASYMMETRIC UNIT

 ****    1 SYMMOPS - TRANSLATORS IN FRACTIONAL UNITS
 **** MATRICES AND TRANSLATORS IN THE CRYSTALLOGRAPHIC REFERENCE FRAME
   V INV                    ROTATION MATRICES                   TRANSLATORS
   1   1  1.00  0.00  0.00  0.00  1.00  0.00  0.00  0.00  1.00  0.00  0.00  0.00

 DIRECT LATTICE VECTORS CARTESIAN COMPONENTS (ANGSTROM)
          X                    Y                    Z
  -0.605751821354E-02   0.701883533998E+01   0.702909837140E+01
   0.699643557908E+01  -0.619691904867E-02   0.702030945451E+01
   0.700153453414E+01   0.701064082911E+01  -0.621965417020E-02


 CARTESIAN COORDINATES - PRIMITIVE CELL
 *******************************************************************************
 *      ATOM          X(ANGSTROM)         Y(ANGSTROM)         Z(ANGSTROM)
 *******************************************************************************
    1    20 CA    9.817499490000E-03 -3.079601270000E-03 -2.092945446500E-02
    2    20 CA    2.330772699136E+00  2.321085052024E+00 -6.889788389300E-02
    3    20 CA   -2.330687392657E+00 -2.328461314156E+00 -2.634501791400E-02
    4    20 CA    2.339655778263E+00 -2.986389906300E-02  2.341481264913E+00
    5    20 CA    4.694618413505E+00  2.293960526500E+00  2.300952709364E+00
    6    20 CA    3.672497026700E-02 -2.336670740327E+00  2.357151711785E+00
    7    20 CA   -2.341663137355E+00 -1.656950500600E-02 -2.334444913717E+00
    8    20 CA    1.115970657100E-02  2.315713182266E+00 -2.354638371337E+00
    9    12 MG   -4.742677493109E+00 -2.241300096434E+00 -2.280419767624E+00
   10    20 CA   -2.878186363600E-02  2.356112028018E+00  2.403644575945E+00
   11    20 CA    2.290629372756E+00  4.718537273657E+00  2.349987379425E+00
   12    20 CA   -2.375954805918E+00  2.332601578700E-02  2.343595624720E+00
   13    20 CA    2.329259907626E+00  2.335800044143E+00  4.747898272764E+00
   14    20 CA    4.638244555038E+00  4.701952810150E+00  4.736811844489E+00
   15    12 MG    8.963571691300E-02 -4.595922440600E-02  4.725275954003E+00
   16    12 MG   -2.385126032081E+00  2.286251971583E+00  5.296607814999E-03
   17    20 CA   -3.062621602500E-02  4.729919332327E+00 -8.110288740000E-03
   18    12 MG   -4.690040600803E+00 -2.957130148000E-02 -6.096772371300E-02
   19    12 MG    8.887580230300E-02 -2.217034221237E+00 -2.351258252675E+00
   20    12 MG    2.324113746818E+00 -8.457175732700E-02 -2.311197600859E+00
   21    20 CA   -2.326682781334E+00 -4.693625362613E+00 -2.313877181695E+00
   22    12 MG    2.386815288550E+00 -2.249418766511E+00 -7.433818103600E-02
   23    12 MG    4.580793648584E+00 -1.118606291000E-02 -4.964234044300E-02
   24    20 CA    4.787572295300E-02 -4.732130832082E+00 -3.336678669900E-02
   25    20 CA   -2.332458782401E+00 -2.324180439786E+00 -4.719456388752E+00
   26    12 MG    4.465668862400E-02 -1.921282889200E-02 -4.658540546979E+00
   27    20 CA   -4.661336153520E+00 -4.692796082038E+00 -4.691534267401E+00
   28     8 O     1.032104241940E-01 -1.007717392660E-01 -2.395051981810E+00
   29     8 O     2.316629628526E+00  2.331313706709E+00 -2.337801687916E+00
   30     8 O    -2.320378389908E+00 -2.325521183706E+00 -2.326348095893E+00
   31     8 O     2.420091604288E+00 -8.231271468700E-02 -7.647489466300E-02
   32     8 O     4.668000764369E+00  2.235711430543E+00 -9.763200971000E-03
   33     8 O     1.300551633210E-01 -2.334482261744E+00 -4.322527688700E-02
   34     8 O     4.737666742766E+00 -5.886223800038E-05  2.281398522272E+00
   35     8 O     6.997711086962E+00  2.223739513701E+00  2.329136318631E+00
   36     8 O     2.326666648791E+00 -2.330565364218E+00  2.343200291827E+00
   37     8 O    -9.600072135600E-02  2.344811667516E+00 -9.215677240003E-04
   38     8 O     2.337178763594E+00  4.776557453885E+00 -7.652357120800E-02
   39     8 O    -2.433257938927E+00  8.772948040100E-02 -2.653235241000E-03
   40     8 O     2.334572865875E+00  2.336795564757E+00  2.342645412785E+00
   41     8 O     4.662216510286E+00  4.667363367815E+00  2.318828628513E+00
   42     8 O    -2.889149976000E-03  1.789225113000E-03  2.391574762981E+00
   43     8 O     4.677152830606E+00  2.334531116869E+00  4.758595341681E+00
   44     8 O     7.096980200847E+00  4.779914948151E+00  4.683936280498E+00
   45     8 O     2.232954602194E+00 -1.039615012460E-01  4.763323020030E+00
   46     8 O    -5.059151724000E-03  4.794684891910E+00  2.407845246516E+00
   47     8 O     2.226007588081E+00  7.003014772761E+00  2.354387301169E+00
   48     8 O    -2.326772331858E+00  2.342347252169E+00  2.321774915515E+00
   49     8 O     2.227487848845E+00  4.774312699808E+00  4.763948782054E+00
   50     8 O     4.614954129455E+00  6.996651065748E+00  4.729031270109E+00
   51     8 O     1.857378367400E-02  2.302983959084E+00  4.690028290139E+00
   52     8 O     4.526013897147E+00  4.720780226081E+00  7.014838152999E+00
   53     8 O     7.029240230172E+00  7.004902391101E+00  6.988572525960E+00
   54     8 O     2.466984788719E+00  2.295469317217E+00  7.025914244208E+00
 WARNING **** CRYSTA **** TESTGEOM  DIRECTIVE - GEOMETRY EDITING COMPLETE
 TTTTTTTTTTTTTTTTTTTTTTTTTTTTTT END         TELAPSE        0.01 TCPU        0.01
 EEEEEEEEEE TERMINATION  DATE 10 03 2023 TIME 10:28:52.3
Fri 10 Mar 2023 10:28:52 GMT
Contents of temporary directory:
total 8
-rw-r--r--  1 brunocamino  admin  4027 10 Mar 10:28 fort.34
SCF abnormal end - no wf written in fort.9
geometry input file fort.34 saved as /Users/brunocamino/Desktop/Imperial/cmsg_icl/solid-solutions/./data/crystal/testgeom_opt/CaMgO_testgeom_819.gui
temporary directory /Users/brunocamino/crystal/tmp removed
