date Fri 10 Mar 2023 10:32:20 GMT
hostname MacBook-Pro-8
system Darwin MacBook-Pro-8 21.6.0 Darwin Kernel Version 21.6.0: Mon Aug 22 20:20:05 PDT 2022; root:xnu-8020.140.49~2/RELEASE_ARM64_T8101 arm64
user brunocamino
output data in /Users/brunocamino/Desktop/Imperial/cmsg_icl/solid-solutions/./data/crystal/testgeom_opt/CaMgO_testgeom_3404.out
crystal executable in /Users/brunocamino/crystal
input data in /Users/brunocamino/Desktop/Imperial/cmsg_icl/solid-solutions/./data/crystal/testgeom_opt/CaMgO_testgeom_3404.d12
temporary directory /Users/brunocamino/crystal/tmp
external geometry input from /Users/brunocamino/Desktop/Imperial/cmsg_icl/solid-solutions/./data/crystal/testgeom_opt/CaMgO_testgeom_3404.gui
external geometry input saved in /Users/brunocamino/Desktop/Imperial/cmsg_icl/solid-solutions/./data/crystal/testgeom_opt/CaMgO_testgeom_3404_inp.gui
Bulk 
EXTERNAL
EXTPRT
TESTGEOM
END

         
 *******************************************************************************
 *                                                                             *
 *                               CRYSTAL17                                     *
 *                      public : 1.0.1 - Feb 1st, 2017                         *
 *                       HTTP://WWW.CRYSTAL.UNITO.IT                           *
 *                                                                             *
 *                              MAIN AUTHORS                                   *
 *                                                                             *
 *  R. DOVESI(1,11), V.R. SAUNDERS(2), C. ROETTI(1,11), R. ORLANDO(1,11),      *
 *  C.M. ZICOVICH-WILSON(1,3), F. PASCALE(4), B. CIVALLERI(1,11),              *
 *  K. DOLL(5), N.M. HARRISON(2,6), I.J. BUSH(7), Ph. D'ARCO(8),               *
 *  M. LLUNELL(9), M. CAUSA'(10), Y. NOEL(8), L. MASCHIO(1,11), A. ERBA(1,11)  *
 *  M. RE'RAT(14), S. CASASSA(1,11)                                            *
 *                                                                             *
 *        CONTRIBUTIONS TO THE CODE HAVE ALSO BEEN GIVEN BY                    *
 *                                                                             *
 *  M. FERRABONE(1,11), M. DE LA PIERRE(1,11), M. FERRERO(1,11),               *
 *  J. BAIMA(1,11), E. ALBANESE(1,11), M.F. PEINTINGER(12), R. BAST(13),       *
 *  B. KIRTMAN(15), V. LACIVITA(1,11), R. DEMICHELIS(1,16)                     *
 *  G. BRANDEBURG(17), S. SALUSTRO(1,11), G. SANSONE(1,11)                     *
 *  M.T. RUGGIERO(18)                                                          *
 *                                                                             *
 * (1) THEORETICAL CHEMISTRY GROUP - UNIVERSITA' DI TORINO - TORINO (ITALY)    *

 * (2) COMPUTATIONAL SCIENCE & ENGINEERING DEPARTMENT - STFC DARESBURY (UK)    *
 * (3) UNIVERSIDAD AUTONOMA DEL ESTADO DE MORELOS - CUERNAVACA (MEXICO)        *
 * (4) UNIVERSITE' DE LORRAINE - NANCY (FRANCE)                                *
 * (5) UNIVERSITAET STUTTGART- STUTTGART (GERMANY)                             *
 * (6) IMPERIAL COLLEGE - LONDON (UK)                                          *
 * (7) OXFORD E-RESEARCH CENTRE - OXFORD (UK)                                  *
 * (8) UPMC - SORBONNE UNIVERSITES - PARIS (FRANCE)                            *
 * (9) UNIVERSIDAD DE BARCELONA - BARCELONA (SPAIN)                            *
 *(10) UNIVERSITA' DI NAPOLI "FEDERICO II" - NAPOLI (ITALY)                    *
 *(11) NIS - NANOSTRUCTURED INTERFACES AND SURFACES - TORINO (ITALY)           *
 *(12) MPI FUER CHEMISCHE ENERGIEKONVERSION - MUELHEIM AN DER RUHR (GERMANY)   *
 *(13) UNIVERSITY OF TROMSO - TROMSO (NORWAY)                                  *
 *(14) UNIVERSITE' DE PAU ET DES PAYS DE L'ADOUR - PAU (FRANCE)                *
 *(15) UNIVERSITY OF CALIFORNIA SANTA BARBARA - SANTA BARBARA (USA)            *
 *(16) CURTIN UNIVERSITY - PERTH (AUSTRALIA)                                   *
 *(17) UNIVERSITY COLLEGE LONDON - LONDON (UK)                                 *
 *(18) CAMBRIDGE UNIVERSITY - CAMBRIDGE (UK)                                   *
 *                                                                             *
 *******************************************************************************
 EEEEEEEEEE STARTING  DATE 10 03 2023 TIME 10:32:20.9
 Bulk                                                                            

 GEOMETRY INPUT FROM EXTERNAL FILE (FORTRAN UNIT 34)
 3D - CRYSTAL 

 *******************************************************************************
 LATTICE PARAMETERS  (ANGSTROMS AND DEGREES) - PRIMITIVE CELL
       A          B          C        ALPHA      BETA     GAMMA        VOLUME
    9.91889    9.92107    9.89665    59.99541  59.86499  59.80865    686.916836
 INFORMATION **** CHKGRP **** SPGR WITH NO INVERSION

 NUMBER OF IRREDUCIBLE ATOMS IN THE CELL:   54

 CARTESIAN COORDINATES (ANGSTROM) - IRREDUCIBLE ATOMS AND SYMMETRY RELATED

 AT.IRR.  AT  AT.N.          X                   Y                   Z
     1     1    20   -2.665232103900E-02  2.050880507800E-02 -6.198848647000E-02
     2     2    20    2.321180047913E+00  2.350300423931E+00 -4.492657099900E-02
     3     3    20   -2.337918556437E+00 -2.312840290207E+00 -3.291663740700E-02
     4     4    20    2.317864464491E+00 -3.378114768200E-02  2.364689904328E+00
     5     5    20    4.711270914113E+00  2.307193374231E+00  2.317905995627E+00
     6     6    20    1.299075082200E-02 -2.343462136219E+00  2.381011986417E+00
     7     7    20   -2.313070773603E+00 -1.683489512600E-02 -2.334603549254E+00
     8     8    12   -1.319778385700E-02  2.345646399635E+00 -2.372936989402E+00
     9     9    12   -4.786351735047E+00 -2.379281368136E+00 -2.390880738195E+00
    10    10    20   -3.578751429300E-02  2.324251726565E+00  2.400388232208E+00
    11    11    20    2.326339248344E+00  4.734133792109E+00  2.355143550365E+00
    12    12    12   -2.316792402751E+00  5.738712113400E-02  2.284918220044E+00
    13    13    20    2.343204911392E+00  2.338005575487E+00  4.685487665620E+00
    14    14    20    4.722874711221E+00  4.704908418909E+00  4.709805742158E+00
    15    15    12   -5.852686151400E-02 -4.908513692900E-02  4.680052918671E+00
    16    16    12   -2.345393010976E+00  2.273866225285E+00  5.206469318200E-02
    17    17    20   -2.644276887900E-02  4.687488879912E+00 -1.504235905500E-02
    18    18    20   -4.686583898080E+00  9.861851934000E-03  3.900379978000E-03
    19    19    12    3.368283813900E-02 -2.307084434532E+00 -2.371514264831E+00
    20    20    20    2.319036308750E+00  3.665592553200E-02 -2.350836732308E+00
    21    21    20   -2.317601640789E+00 -4.682994162246E+00 -2.352051255558E+00
    22    22    20    2.368149873839E+00 -2.355503306806E+00  9.477041072000E-03
    23    23    12    4.707950777490E+00  1.282076343000E-03  2.050189646700E-02
    24    24    20    3.059741609900E-02 -4.707450219565E+00  9.885841292000E-03
    25    25    20   -2.329459570821E+00 -2.357822278731E+00 -4.685443406790E+00
    26    26    12   -1.434511416400E-02  3.988314611600E-02 -4.565627529918E+00
    27    27    12   -4.651384987692E+00 -4.700636151622E+00 -4.657854944792E+00
    28    28     8    4.524177783000E-03 -1.341608086300E-02 -2.425456437309E+00
    29    29     8    2.232228968215E+00  2.449124410243E+00 -2.424134189627E+00
    30    30     8   -2.275320316605E+00 -2.336913002503E+00 -2.362762753230E+00
    31    31     8    2.403246586792E+00  5.466624272000E-03  1.347838099100E-02
    32    32     8    4.667764031040E+00  2.264787898057E+00  1.851255756000E-03
    33    33     8    1.789052088000E-03 -2.335385618939E+00 -5.599363921600E-02
    34    34     8    4.752497231219E+00  2.494634648000E-03  2.286075174051E+00
    35    35     8    7.082660077386E+00  2.214311340155E+00  2.451807063520E+00
    36    36     8    2.335817250919E+00 -2.432922697086E+00  2.439412390660E+00
    37    37     8   -9.824023011100E-02  2.336108966753E+00 -6.805713168000E-02
    38    38     8    2.311145531334E+00  4.675441336548E+00 -4.477016629000E-02
    39    39     8   -2.339379145334E+00  8.517610233400E-02  6.375951747100E-02
    40    40     8    2.336978395191E+00  2.335426970815E+00  2.341535789077E+00
    41    41     8    4.664207983665E+00  4.754838522818E+00  2.349809383845E+00
    42    42     8   -9.633878885100E-02 -3.978312956000E-03  2.379404907747E+00
    43    43     8    4.789214203167E+00  2.338729586102E+00  4.723410251525E+00
    44    44     8    7.097039614148E+00  4.700230459249E+00  4.680474335094E+00
    45    45     8    2.225148145137E+00 -7.963527317100E-02  4.692684284905E+00
    46    46     8    1.399523272100E-02  4.767248529587E+00  2.421423019783E+00
    47    47     8    2.316937594168E+00  7.113642565674E+00  2.349884083367E+00
    48    48     8   -2.407638112376E+00  2.209090422957E+00  2.266002967591E+00
    49    49     8    2.261948882440E+00  4.681530016214E+00  4.678013901121E+00
    50    50     8    4.730153080538E+00  7.011564435341E+00  4.696255317448E+00
    51    51     8    3.353333343400E-02  2.324753845143E+00  4.692527862990E+00
    52    52     8    4.668423518198E+00  4.698919437700E+00  7.034751840873E+00
    53    53     8    6.862704051662E+00  7.012788731226E+00  6.982533276557E+00
    54    54     8    2.464383427894E+00  2.338729136696E+00  7.099626381978E+00

 SYMMETRY CHANGED DURING OLD RUN :  INFORMATION ON SPACE GROUP LOST 
 NUMBER OF SYMMETRY OPERATORS         :    1
 *******************************************************************************
 LATTICE PARAMETERS (ANGSTROMS AND DEGREES) - BOHR = 0.5291772083 ANGSTROM
 PRIMITIVE CELL - CENTRING CODE 1/0 VOLUME=   686.916836 - DENSITY  3.305 g/cm^3
         A              B              C           ALPHA      BETA       GAMMA 
     9.91889157     9.92107469     9.89664802    59.995405  59.864986  59.808648
 *******************************************************************************
 ATOMS IN THE ASYMMETRIC UNIT   54 - ATOMS IN THE UNIT CELL:   54
     ATOM                 X/A                 Y/B                 Z/C    
 *******************************************************************************
      1 T  20 CA   -1.047057369512E-03 -7.781582609254E-03  3.983207363188E-03
      2 T  20 CA   -1.977394302434E-03 -5.199721392680E-03  3.373694009883E-01
      3 T  20 CA    2.978892096045E-04 -4.212673289924E-03 -3.303328888335E-01
      4 T  20 CA    4.005861318204E-05  3.363590711825E-01 -5.283382442965E-03
      5 T  20 CA   -7.914906314576E-03  3.368546746500E-01  3.367243740708E-01
      6 T  20 CA    1.705796046427E-03  3.377867654876E-01 -3.365400916987E-01
      7 T  20 CA   -1.849123232030E-03 -3.302597004941E-01 -1.384669194322E-04
      8 T  12 MG   -9.591087667322E-04 -3.373828336205E-01  3.361047463728E-01
      9 T  12 MG    2.950597739986E-03 -3.422649969523E-01 -3.420412055157E-01
     10 T  20 CA    3.396197518388E-01  2.275896716589E-03 -7.882382103440E-03
     11 T  20 CA    3.389342357467E-01 -4.276141771277E-03  3.366993623285E-01
     12 T  12 MG    3.332277799388E-01 -7.029385348542E-03 -3.249597250239E-01
     13 T  20 CA    3.329903231829E-01  3.339430267845E-01  2.914206710106E-04
     14 T  20 CA    3.329421862445E-01  3.366657246688E-01  3.380911633539E-01
     15 T  12 MG    3.345272212880E-01  3.324297594295E-01 -3.418790819568E-01
     16 T  12 MG    3.341496781299E-01 -3.263162568321E-01 -9.190399778374E-03
     17 T  20 CA    3.352679783798E-01 -3.377769982689E-01  3.341278568768E-01
     18 T  20 CA    3.370789744733E-01 -3.353362783836E-01 -3.351792552038E-01
     19 T  12 MG   -3.361843530004E-01 -1.597395082585E-03  6.896611454137E-03
     20 T  20 CA   -3.313809074171E-01 -4.219341386109E-03  3.365472437915E-01
     21 T  20 CA   -3.356915464438E-01  1.467851144071E-03 -3.326402572896E-01
     22 T  20 CA   -3.372165282582E-01  3.381539212559E-01  5.921823646564E-04
     23 T  12 MG   -3.360755586546E-01  3.378040478238E-01  3.357631778117E-01
     24 T  20 CA   -3.373579553495E-01  3.391326692720E-01 -3.348884900790E-01
     25 T  20 CA   -3.353867988447E-01 -3.315421541992E-01 -7.262939681285E-04
     26 T  12 MG   -3.217957140559E-01 -3.288357006010E-01  3.278326200594E-01
     27 T  12 MG   -3.340585394492E-01 -3.281644975943E-01 -3.363760818719E-01
     28 T   8 O    -1.742915213334E-01 -1.713520191123E-01  1.725557626643E-01
     29 T   8 O    -1.582582505756E-01 -1.879568668537E-01 -4.920508125022E-01
     30 T   8 O    -1.720987663591E-01 -1.638483308433E-01 -1.612070125204E-01
     31 T   8 O    -1.709967371809E-01  1.723080430199E-01  1.715242498903E-01
     32 T   8 O    -1.730265230094E-01  1.719276836231E-01  4.959573256744E-01
     33 T   8 O    -1.707483000010E-01  1.629537650809E-01 -1.627500165651E-01
     34 T   8 O    -1.775784268061E-01 -4.978454095625E-01  1.772658490412E-01
     35 T   8 O    -1.750541599204E-01 -4.775178628599E-01  4.903409396011E-01
     36 T   8 O    -1.670922085614E-01 -4.856743261487E-01 -1.807654589212E-01
     37 T   8 O     1.688682342723E-01 -1.787273635375E-01  1.647527346034E-01
     38 T   8 O     1.646483669694E-01 -1.719852173511E-01 -4.972160058784E-01
     39 T   8 O     1.783931544998E-01 -1.687209329835E-01 -1.659889789613E-01
     40 T   8 O     1.660568102935E-01  1.668497981159E-01  1.670318688962E-01
     41 T   8 O     1.723713529146E-01  1.609324935547E-01 -4.940259204330E-01
     42 T   8 O     1.763500260918E-01  1.627555170991E-01 -1.770851940553E-01
     43 T   8 O     1.603321179640E-01 -4.886144627825E-01  1.727935681516E-01
     44 T   8 O     1.602535766442E-01 -4.954268606328E-01 -4.901351625167E-01
     45 T   8 O     1.694753735540E-01  4.987053679929E-01 -1.814304492329E-01
     46 T   8 O    -4.881461694660E-01 -1.671671238971E-01  1.687463503452E-01
     47 T   8 O    -4.909926497348E-01 -1.752852642529E-01 -4.935691154964E-01
     48 T   8 O     4.919140087946E-01 -1.685589392244E-01 -1.763632775078E-01
     49 T   8 O    -4.945089154407E-01  1.602117708572E-01  1.624642945644E-01
     50 T   8 O     4.960297717888E-01  1.714621712618E-01 -4.955965798987E-01
     51 T   8 O     4.981845062458E-01  1.703384746375E-01 -1.665533642432E-01
     52 T   8 O    -4.977397962780E-01  4.986820573919E-01  1.677505065401E-01
     53 T   8 O    -4.937360706279E-01  4.864971091965E-01  4.939501348720E-01
     54 T   8 O     4.965542158905E-01 -4.856210223779E-01 -1.633616009340E-01

 T = ATOM BELONGING TO THE ASYMMETRIC UNIT
 *******************************************************************************
 * GEOMETRY EDITING - INPUT COORDINATES ARE GIVEN IN ANGSTROM         
 *******************************************************************************

 GCALCO - MAX INDICES DIRECT LATTICE VECTOR    15    14    15
 NO.OF VECTORS CREATED 6999 STARS 3500 RMAX   198.22654 BOHR

 GEOMETRY FOR WAVE FUNCTION - DIMENSIONALITY OF THE SYSTEM    3
 (NON PERIODIC DIRECTION: LATTICE PARAMETER FORMALLY SET TO 500)
 *******************************************************************************
 LATTICE PARAMETERS (ANGSTROMS AND DEGREES) - BOHR = 0.5291772083 ANGSTROM
 PRIMITIVE CELL - CENTRING CODE 1/0 VOLUME=   686.916836 - DENSITY  3.305 g/cm^3
         A              B              C           ALPHA      BETA       GAMMA 
     9.91889157     9.92107469     9.89664802    59.995405  59.864986  59.808648
 *******************************************************************************
 ATOMS IN THE ASYMMETRIC UNIT   54 - ATOMS IN THE UNIT CELL:   54
     ATOM                 X/A                 Y/B                 Z/C    
 *******************************************************************************
      1 T  20 CA   -1.047057369512E-03 -7.781582609254E-03  3.983207363188E-03
      2 T  20 CA   -1.977394302434E-03 -5.199721392680E-03  3.373694009883E-01
      3 T  20 CA    2.978892096045E-04 -4.212673289924E-03 -3.303328888335E-01
      4 T  20 CA    4.005861318207E-05  3.363590711825E-01 -5.283382442965E-03
      5 T  20 CA   -7.914906314576E-03  3.368546746500E-01  3.367243740708E-01
      6 T  20 CA    1.705796046427E-03  3.377867654876E-01 -3.365400916987E-01
      7 T  20 CA   -1.849123232030E-03 -3.302597004941E-01 -1.384669194322E-04
      8 T  12 MG   -9.591087667322E-04 -3.373828336205E-01  3.361047463728E-01
      9 T  12 MG    2.950597739986E-03 -3.422649969523E-01 -3.420412055157E-01
     10 T  20 CA    3.396197518388E-01  2.275896716589E-03 -7.882382103440E-03
     11 T  20 CA    3.389342357467E-01 -4.276141771277E-03  3.366993623285E-01
     12 T  12 MG    3.332277799388E-01 -7.029385348542E-03 -3.249597250239E-01
     13 T  20 CA    3.329903231829E-01  3.339430267845E-01  2.914206710105E-04
     14 T  20 CA    3.329421862445E-01  3.366657246688E-01  3.380911633539E-01
     15 T  12 MG    3.345272212880E-01  3.324297594295E-01 -3.418790819568E-01
     16 T  12 MG    3.341496781299E-01 -3.263162568321E-01 -9.190399778374E-03
     17 T  20 CA    3.352679783798E-01 -3.377769982689E-01  3.341278568768E-01
     18 T  20 CA    3.370789744733E-01 -3.353362783836E-01 -3.351792552038E-01
     19 T  12 MG   -3.361843530004E-01 -1.597395082585E-03  6.896611454137E-03
     20 T  20 CA   -3.313809074171E-01 -4.219341386109E-03  3.365472437915E-01
     21 T  20 CA   -3.356915464438E-01  1.467851144071E-03 -3.326402572896E-01
     22 T  20 CA   -3.372165282582E-01  3.381539212559E-01  5.921823646564E-04
     23 T  12 MG   -3.360755586546E-01  3.378040478238E-01  3.357631778117E-01
     24 T  20 CA   -3.373579553495E-01  3.391326692720E-01 -3.348884900790E-01
     25 T  20 CA   -3.353867988447E-01 -3.315421541992E-01 -7.262939681285E-04
     26 T  12 MG   -3.217957140559E-01 -3.288357006010E-01  3.278326200594E-01
     27 T  12 MG   -3.340585394492E-01 -3.281644975943E-01 -3.363760818719E-01
     28 T   8 O    -1.742915213334E-01 -1.713520191123E-01  1.725557626643E-01
     29 T   8 O    -1.582582505756E-01 -1.879568668537E-01 -4.920508125022E-01
     30 T   8 O    -1.720987663591E-01 -1.638483308433E-01 -1.612070125204E-01
     31 T   8 O    -1.709967371809E-01  1.723080430199E-01  1.715242498903E-01
     32 T   8 O    -1.730265230094E-01  1.719276836231E-01  4.959573256744E-01
     33 T   8 O    -1.707483000010E-01  1.629537650809E-01 -1.627500165651E-01
     34 T   8 O    -1.775784268061E-01 -4.978454095625E-01  1.772658490412E-01
     35 T   8 O    -1.750541599204E-01 -4.775178628599E-01  4.903409396011E-01
     36 T   8 O    -1.670922085614E-01 -4.856743261487E-01 -1.807654589212E-01
     37 T   8 O     1.688682342723E-01 -1.787273635375E-01  1.647527346034E-01
     38 T   8 O     1.646483669694E-01 -1.719852173511E-01 -4.972160058784E-01
     39 T   8 O     1.783931544998E-01 -1.687209329835E-01 -1.659889789613E-01
     40 T   8 O     1.660568102935E-01  1.668497981159E-01  1.670318688962E-01
     41 T   8 O     1.723713529146E-01  1.609324935547E-01 -4.940259204330E-01
     42 T   8 O     1.763500260918E-01  1.627555170991E-01 -1.770851940553E-01
     43 T   8 O     1.603321179640E-01 -4.886144627825E-01  1.727935681516E-01
     44 T   8 O     1.602535766442E-01 -4.954268606328E-01 -4.901351625167E-01
     45 T   8 O     1.694753735540E-01  4.987053679929E-01 -1.814304492329E-01
     46 T   8 O    -4.881461694660E-01 -1.671671238971E-01  1.687463503452E-01
     47 T   8 O    -4.909926497348E-01 -1.752852642529E-01 -4.935691154964E-01
     48 T   8 O     4.919140087946E-01 -1.685589392244E-01 -1.763632775078E-01
     49 T   8 O    -4.945089154407E-01  1.602117708572E-01  1.624642945644E-01
     50 T   8 O     4.960297717888E-01  1.714621712618E-01 -4.955965798987E-01
     51 T   8 O     4.981845062458E-01  1.703384746375E-01 -1.665533642432E-01
     52 T   8 O    -4.977397962780E-01  4.986820573919E-01  1.677505065401E-01
     53 T   8 O    -4.937360706279E-01  4.864971091965E-01  4.939501348720E-01
     54 T   8 O     4.965542158905E-01 -4.856210223779E-01 -1.633616009340E-01

 T = ATOM BELONGING TO THE ASYMMETRIC UNIT

 ****    1 SYMMOPS - TRANSLATORS IN FRACTIONAL UNITS
 **** MATRICES AND TRANSLATORS IN THE CRYSTALLOGRAPHIC REFERENCE FRAME
   V INV                    ROTATION MATRICES                   TRANSLATORS
   1   1  1.00  0.00  0.00  0.00  1.00  0.00  0.00  0.00  1.00  0.00  0.00  0.00

 DIRECT LATTICE VECTORS CARTESIAN COMPONENTS (ANGSTROM)
          X                    Y                    Z
   0.990214057288E-02   0.700627519180E+01   0.702114092867E+01
   0.700080823230E+01   0.880848420295E-02   0.702967491876E+01
   0.698819120458E+01   0.700774992431E+01   0.163303017774E-01


 CARTESIAN COORDINATES - PRIMITIVE CELL
 *******************************************************************************
 *      ATOM          X(ANGSTROM)         Y(ANGSTROM)         Z(ANGSTROM)
 *******************************************************************************
    1    20 CA   -2.665232103900E-02  2.050880507800E-02 -6.198848647000E-02
    2    20 CA    2.321180047913E+00  2.350300423931E+00 -4.492657099900E-02
    3    20 CA   -2.337918556437E+00 -2.312840290207E+00 -3.291663740700E-02
    4    20 CA    2.317864464491E+00 -3.378114768200E-02  2.364689904328E+00
    5    20 CA    4.711270914113E+00  2.307193374231E+00  2.317905995627E+00
    6    20 CA    1.299075082200E-02 -2.343462136219E+00  2.381011986417E+00
    7    20 CA   -2.313070773603E+00 -1.683489512600E-02 -2.334603549254E+00
    8    12 MG   -1.319778385700E-02  2.345646399635E+00 -2.372936989402E+00
    9    12 MG   -4.786351735047E+00 -2.379281368136E+00 -2.390880738195E+00
   10    20 CA   -3.578751429300E-02  2.324251726565E+00  2.400388232208E+00
   11    20 CA    2.326339248344E+00  4.734133792109E+00  2.355143550365E+00
   12    12 MG   -2.316792402751E+00  5.738712113400E-02  2.284918220044E+00
   13    20 CA    2.343204911392E+00  2.338005575487E+00  4.685487665620E+00
   14    20 CA    4.722874711221E+00  4.704908418909E+00  4.709805742158E+00
   15    12 MG   -5.852686151400E-02 -4.908513692900E-02  4.680052918671E+00
   16    12 MG   -2.345393010976E+00  2.273866225285E+00  5.206469318200E-02
   17    20 CA   -2.644276887900E-02  4.687488879912E+00 -1.504235905500E-02
   18    20 CA   -4.686583898080E+00  9.861851934000E-03  3.900379978000E-03
   19    12 MG    3.368283813900E-02 -2.307084434532E+00 -2.371514264831E+00
   20    20 CA    2.319036308750E+00  3.665592553200E-02 -2.350836732308E+00
   21    20 CA   -2.317601640789E+00 -4.682994162246E+00 -2.352051255558E+00
   22    20 CA    2.368149873839E+00 -2.355503306806E+00  9.477041071999E-03
   23    12 MG    4.707950777490E+00  1.282076343000E-03  2.050189646700E-02
   24    20 CA    3.059741609900E-02 -4.707450219565E+00  9.885841291999E-03
   25    20 CA   -2.329459570821E+00 -2.357822278731E+00 -4.685443406790E+00
   26    12 MG   -1.434511416400E-02  3.988314611600E-02 -4.565627529918E+00
   27    12 MG   -4.651384987692E+00 -4.700636151622E+00 -4.657854944792E+00
   28     8 O     4.524177783000E-03 -1.341608086300E-02 -2.425456437309E+00
   29     8 O     2.232228968215E+00  2.449124410243E+00 -2.424134189627E+00
   30     8 O    -2.275320316605E+00 -2.336913002503E+00 -2.362762753230E+00
   31     8 O     2.403246586792E+00  5.466624272000E-03  1.347838099100E-02
   32     8 O     4.667764031040E+00  2.264787898057E+00  1.851255756000E-03
   33     8 O     1.789052088000E-03 -2.335385618939E+00 -5.599363921600E-02
   34     8 O     4.752497231219E+00  2.494634648000E-03  2.286075174051E+00
   35     8 O     7.082660077386E+00  2.214311340155E+00  2.451807063520E+00
   36     8 O     2.335817250919E+00 -2.432922697086E+00  2.439412390660E+00
   37     8 O    -9.824023011100E-02  2.336108966753E+00 -6.805713168000E-02
   38     8 O     2.311145531334E+00  4.675441336548E+00 -4.477016629000E-02
   39     8 O    -2.339379145334E+00  8.517610233400E-02  6.375951747100E-02
   40     8 O     2.336978395191E+00  2.335426970815E+00  2.341535789077E+00
   41     8 O     4.664207983665E+00  4.754838522818E+00  2.349809383845E+00
   42     8 O    -9.633878885100E-02 -3.978312956000E-03  2.379404907747E+00
   43     8 O     4.789214203167E+00  2.338729586102E+00  4.723410251525E+00
   44     8 O     7.097039614148E+00  4.700230459249E+00  4.680474335094E+00
   45     8 O     2.225148145137E+00 -7.963527317100E-02  4.692684284905E+00
   46     8 O     1.399523272100E-02  4.767248529587E+00  2.421423019783E+00
   47     8 O     2.316937594168E+00  7.113642565674E+00  2.349884083367E+00
   48     8 O    -2.407638112376E+00  2.209090422957E+00  2.266002967591E+00
   49     8 O     2.261948882440E+00  4.681530016214E+00  4.678013901121E+00
   50     8 O     4.730153080538E+00  7.011564435341E+00  4.696255317448E+00
   51     8 O     3.353333343400E-02  2.324753845143E+00  4.692527862990E+00
   52     8 O     4.668423518198E+00  4.698919437700E+00  7.034751840873E+00
   53     8 O     6.862704051662E+00  7.012788731226E+00  6.982533276557E+00
   54     8 O     2.464383427894E+00  2.338729136696E+00  7.099626381978E+00
 WARNING **** CRYSTA **** TESTGEOM  DIRECTIVE - GEOMETRY EDITING COMPLETE
 TTTTTTTTTTTTTTTTTTTTTTTTTTTTTT END         TELAPSE        0.01 TCPU        0.01
 EEEEEEEEEE TERMINATION  DATE 10 03 2023 TIME 10:32:20.9
Fri 10 Mar 2023 10:32:20 GMT
Contents of temporary directory:
total 8
-rw-r--r--  1 brunocamino  admin  4027 10 Mar 10:32 fort.34
SCF abnormal end - no wf written in fort.9
geometry input file fort.34 saved as /Users/brunocamino/Desktop/Imperial/cmsg_icl/solid-solutions/./data/crystal/testgeom_opt/CaMgO_testgeom_3404.gui
temporary directory /Users/brunocamino/crystal/tmp removed
