date Fri 10 Mar 2023 10:31:16 GMT
hostname MacBook-Pro-8
system Darwin MacBook-Pro-8 21.6.0 Darwin Kernel Version 21.6.0: Mon Aug 22 20:20:05 PDT 2022; root:xnu-8020.140.49~2/RELEASE_ARM64_T8101 arm64
user brunocamino
output data in /Users/brunocamino/Desktop/Imperial/cmsg_icl/solid-solutions/./data/crystal/testgeom_opt/CaMgO_testgeom_2613.out
crystal executable in /Users/brunocamino/crystal
input data in /Users/brunocamino/Desktop/Imperial/cmsg_icl/solid-solutions/./data/crystal/testgeom_opt/CaMgO_testgeom_2613.d12
temporary directory /Users/brunocamino/crystal/tmp
external geometry input from /Users/brunocamino/Desktop/Imperial/cmsg_icl/solid-solutions/./data/crystal/testgeom_opt/CaMgO_testgeom_2613.gui
external geometry input saved in /Users/brunocamino/Desktop/Imperial/cmsg_icl/solid-solutions/./data/crystal/testgeom_opt/CaMgO_testgeom_2613_inp.gui
Bulk 
EXTERNAL
EXTPRT
TESTGEOM
END

         
 *******************************************************************************
 *                                                                             *
 *                               CRYSTAL17                                     *
 *                      public : 1.0.1 - Feb 1st, 2017                         *
 *                       HTTP://WWW.CRYSTAL.UNITO.IT                           *
 *                                                                             *
 *                              MAIN AUTHORS                                   *
 *                                                                             *
 *  R. DOVESI(1,11), V.R. SAUNDERS(2), C. ROETTI(1,11), R. ORLANDO(1,11),      *
 *  C.M. ZICOVICH-WILSON(1,3), F. PASCALE(4), B. CIVALLERI(1,11),              *
 *  K. DOLL(5), N.M. HARRISON(2,6), I.J. BUSH(7), Ph. D'ARCO(8),               *
 *  M. LLUNELL(9), M. CAUSA'(10), Y. NOEL(8), L. MASCHIO(1,11), A. ERBA(1,11)  *
 *  M. RE'RAT(14), S. CASASSA(1,11)                                            *
 *                                                                             *
 *        CONTRIBUTIONS TO THE CODE HAVE ALSO BEEN GIVEN BY                    *
 *                                                                             *
 *  M. FERRABONE(1,11), M. DE LA PIERRE(1,11), M. FERRERO(1,11),               *
 *  J. BAIMA(1,11), E. ALBANESE(1,11), M.F. PEINTINGER(12), R. BAST(13),       *
 *  B. KIRTMAN(15), V. LACIVITA(1,11), R. DEMICHELIS(1,16)                     *
 *  G. BRANDEBURG(17), S. SALUSTRO(1,11), G. SANSONE(1,11)                     *
 *  M.T. RUGGIERO(18)                                                          *
 *                                                                             *
 * (1) THEORETICAL CHEMISTRY GROUP - UNIVERSITA' DI TORINO - TORINO (ITALY)    *

 * (2) COMPUTATIONAL SCIENCE & ENGINEERING DEPARTMENT - STFC DARESBURY (UK)    *
 * (3) UNIVERSIDAD AUTONOMA DEL ESTADO DE MORELOS - CUERNAVACA (MEXICO)        *
 * (4) UNIVERSITE' DE LORRAINE - NANCY (FRANCE)                                *
 * (5) UNIVERSITAET STUTTGART- STUTTGART (GERMANY)                             *
 * (6) IMPERIAL COLLEGE - LONDON (UK)                                          *
 * (7) OXFORD E-RESEARCH CENTRE - OXFORD (UK)                                  *
 * (8) UPMC - SORBONNE UNIVERSITES - PARIS (FRANCE)                            *
 * (9) UNIVERSIDAD DE BARCELONA - BARCELONA (SPAIN)                            *
 *(10) UNIVERSITA' DI NAPOLI "FEDERICO II" - NAPOLI (ITALY)                    *
 *(11) NIS - NANOSTRUCTURED INTERFACES AND SURFACES - TORINO (ITALY)           *
 *(12) MPI FUER CHEMISCHE ENERGIEKONVERSION - MUELHEIM AN DER RUHR (GERMANY)   *
 *(13) UNIVERSITY OF TROMSO - TROMSO (NORWAY)                                  *
 *(14) UNIVERSITE' DE PAU ET DES PAYS DE L'ADOUR - PAU (FRANCE)                *
 *(15) UNIVERSITY OF CALIFORNIA SANTA BARBARA - SANTA BARBARA (USA)            *
 *(16) CURTIN UNIVERSITY - PERTH (AUSTRALIA)                                   *
 *(17) UNIVERSITY COLLEGE LONDON - LONDON (UK)                                 *
 *(18) CAMBRIDGE UNIVERSITY - CAMBRIDGE (UK)                                   *
 *                                                                             *
 *******************************************************************************
 EEEEEEEEEE STARTING  DATE 10 03 2023 TIME 10:31:16.9
 Bulk                                                                            

 GEOMETRY INPUT FROM EXTERNAL FILE (FORTRAN UNIT 34)
 3D - CRYSTAL 

 *******************************************************************************
 LATTICE PARAMETERS  (ANGSTROMS AND DEGREES) - PRIMITIVE CELL
       A          B          C        ALPHA      BETA     GAMMA        VOLUME
    9.91986    9.91102    9.90275    60.00150  60.01868  59.82068    687.604227
 INFORMATION **** CHKGRP **** SPGR WITH NO INVERSION

 NUMBER OF IRREDUCIBLE ATOMS IN THE CELL:   54

 CARTESIAN COORDINATES (ANGSTROM) - IRREDUCIBLE ATOMS AND SYMMETRY RELATED

 AT.IRR.  AT  AT.N.          X                   Y                   Z
     1     1    20   -2.404555427700E-02  8.918590274000E-03  1.249185700000E-02
     2     2    20    2.375973650653E+00  2.339319566625E+00 -3.109778116000E-02
     3     3    20   -2.345729121035E+00 -2.362006812640E+00 -1.708089526600E-02
     4     4    20    2.362883160319E+00 -9.437988420000E-03  2.404024899106E+00
     5     5    20    4.690870576445E+00  2.304696187460E+00  2.326882005949E+00
     6     6    20    3.078247872800E-02 -2.372226114170E+00  2.335940318066E+00
     7     7    20   -2.345335074870E+00  8.575540595000E-03 -2.317425694503E+00
     8     8    20    3.480328654700E-02  2.332570219852E+00 -2.341549459929E+00
     9     9    12   -4.724613654909E+00 -2.456061872915E+00 -2.470732487661E+00
    10    10    20   -4.812895666700E-02  2.326780887102E+00  2.352516905433E+00
    11    11    20    2.331974738059E+00  4.710067520771E+00  2.363092376013E+00
    12    12    12   -2.337869131900E+00  7.600979630800E-02  2.280834847044E+00
    13    13    12    2.364417060264E+00  2.381962925004E+00  4.714695784204E+00
    14    14    20    4.668970277966E+00  4.694669955067E+00  4.707644013872E+00
    15    15    20   -8.407313647000E-03  5.035945439100E-02  4.713267800137E+00
    16    16    12   -2.391136007859E+00  2.286148849134E+00 -4.003617912000E-03
    17    17    20   -1.494398163200E-02  4.702976837365E+00  7.827939988000E-03
    18    18    20   -4.677767887269E+00  6.394541787400E-02  4.500010338000E-03
    19    19    20   -1.335920692100E-02 -2.371279320386E+00 -2.338382206612E+00
    20    20    20    2.374746402201E+00  3.229638920800E-02 -2.376417357409E+00
    21    21    12   -2.365620044639E+00 -4.724976278629E+00 -2.358067104188E+00
    22    22    20    2.358562809801E+00 -2.394541430405E+00 -6.141653020000E-03
    23    23    12    4.732185321150E+00  1.024882369980E-01  3.141353932800E-02
    24    24    12   -3.455031902900E-02 -4.704262416224E+00  1.743751769100E-02
    25    25    20   -2.346927503568E+00 -2.381048902666E+00 -4.691701079336E+00
    26    26    12   -4.154597299900E-02  4.631637167600E-02 -4.760403103395E+00
    27    27    12   -4.621159763617E+00 -4.720620970405E+00 -4.663710102885E+00
    28    28     8    1.502568059200E-02  3.510705037000E-03 -2.340863987730E+00
    29    29     8    2.423080469194E+00  2.417193117578E+00 -2.413126619620E+00
    30    30     8   -2.437805049309E+00 -2.427813918145E+00 -2.320234222052E+00
    31    31     8    2.434923235154E+00  7.809067410000E-04  3.075836628400E-02
    32    32     8    4.753188459579E+00  2.240384877559E+00 -6.360011061300E-02
    33    33     8   -4.298609171000E-03 -2.423748712159E+00  9.558378716000E-03
    34    34     8    4.769034193183E+00  4.710764803000E-03  2.306441359041E+00
    35    35     8    7.089593566464E+00  2.216259680592E+00  2.262996299143E+00
    36    36     8    2.343403979319E+00 -2.440952684222E+00  2.431883697519E+00
    37    37     8   -5.393920661000E-02  2.340513101598E+00  1.749918728600E-02
    38    38     8    2.323225514865E+00  4.675198098281E+00 -6.316716036500E-02
    39    39     8   -2.324934276497E+00  8.685128279800E-02  7.942097763800E-02
    40    40     8    2.334193601898E+00  2.340602190936E+00  2.386375362122E+00
    41    41     8    4.674776029732E+00  4.727805996821E+00  2.334184067725E+00
    42    42     8   -7.468823866800E-02 -2.959262354000E-03  2.358339858534E+00
    43    43     8    4.565549225349E+00  2.340124671755E+00  4.743120060780E+00
    44    44     8    7.079663820475E+00  4.672203655229E+00  4.671486970597E+00
    45    45     8    2.337588949996E+00  4.810289719300E-02  4.694562238303E+00
    46    46     8    3.537985733000E-03  4.756502762260E+00  2.341424935011E+00
    47    47     8    2.337699589103E+00  7.098044069251E+00  2.338130476313E+00
    48    48     8   -2.449213900656E+00  2.221212873469E+00  2.300788807984E+00
    49    49     8    2.341307931300E+00  4.583761686231E+00  4.682020992474E+00
    50    50     8    4.670455688727E+00  7.136116329487E+00  4.694009017261E+00
    51    51     8   -2.807999892600E-02  2.348929926387E+00  4.705205704009E+00
    52    52     8    4.679064848071E+00  4.647056148666E+00  7.023545866396E+00
    53    53     8    6.890316245173E+00  7.119667478926E+00  7.123647208023E+00
    54    54     8    2.364426412729E+00  2.335424358475E+00  6.989798512632E+00

 SYMMETRY CHANGED DURING OLD RUN :  INFORMATION ON SPACE GROUP LOST 
 NUMBER OF SYMMETRY OPERATORS         :    1
 *******************************************************************************
 LATTICE PARAMETERS (ANGSTROMS AND DEGREES) - BOHR = 0.5291772083 ANGSTROM
 PRIMITIVE CELL - CENTRING CODE 1/0 VOLUME=   687.604227 - DENSITY  3.301 g/cm^3
         A              B              C           ALPHA      BETA       GAMMA 
     9.91985647     9.91102076     9.90274853    60.001496  60.018684  59.820683
 *******************************************************************************
 ATOMS IN THE ASYMMETRIC UNIT   54 - ATOMS IN THE UNIT CELL:   54
     ATOM                 X/A                 Y/B                 Z/C    
 *******************************************************************************
      1 T  20 CA    3.244801938714E-03 -1.467615609901E-03 -1.970569253735E-03
      2 T  20 CA   -4.772026080094E-03  2.199111165215E-04  3.389748347568E-01
      3 T  20 CA   -2.439509623968E-03  1.337155548603E-04 -3.350021053428E-01
      4 T  20 CA    1.541380754446E-03  3.409202938807E-01 -3.192056742411E-03
      5 T  20 CA   -4.878487616178E-03  3.362310369395E-01  3.338375247445E-01
      6 T  20 CA   -5.557303299819E-03  3.384502193748E-01 -3.336425812823E-01
      7 T  20 CA    3.305353043698E-03 -3.334333717806E-01 -1.786307064777E-03
      8 T  20 CA   -2.363544606199E-03 -3.313217866917E-01  3.358947032756E-01
      9 T  12 MG   -1.376723445381E-02 -3.380586398139E-01 -3.368077866694E-01
     10 T  20 CA    3.371783970949E-01 -2.370048763710E-03 -4.890986490841E-03
     11 T  20 CA    3.382197641734E-01 -2.032682432674E-03  3.345494513889E-01
     12 T  12 MG    3.348043304498E-01 -1.008588304409E-02 -3.240601881199E-01
     13 T  12 MG    3.368125374658E-01  3.344940060928E-01  3.060276476741E-03
     14 T  20 CA    3.369529582509E-01  3.332255341299E-01  3.333202304705E-01
     15 T  20 CA    3.395965811885E-01  3.316293847481E-01 -3.328211587525E-01
     16 T  12 MG    3.340177095102E-01 -3.349002712536E-01 -7.239584419255E-03
     17 T  20 CA    3.378257560595E-01 -3.371540158578E-01  3.342272496122E-01
     18 T  20 CA    3.391697384325E-01 -3.387252705706E-01 -3.298598575616E-01
     19 T  20 CA   -3.349596145859E-01  2.165916359007E-03 -3.685596565631E-03
     20 T  20 CA   -3.364987993330E-01 -1.840537549430E-03  3.412387417201E-01
     21 T  12 MG   -3.365236164093E-01  1.052232475782E-03 -3.383752618583E-01
     22 T  20 CA   -3.401605705794E-01  3.396071847376E-01 -2.104694869142E-03
     23 T  12 MG   -3.286050499214E-01  3.332616984793E-01  3.430732426911E-01
     24 T  12 MG   -3.325828547784E-01  3.355073531715E-01 -3.396542921819E-01
     25 T  20 CA   -3.363607179258E-01 -3.316704527859E-01 -3.384182724311E-03
     26 T  12 MG   -3.324699642137E-01 -3.454798142536E-01  3.395155261389E-01
     27 T  12 MG   -3.390983702030E-01 -3.248189707698E-01 -3.348888959150E-01
     28 T   8 O    -1.673984707945E-01 -1.659709289194E-01  1.681088002190E-01
     29 T   8 O    -1.720763739008E-01 -1.717132448555E-01 -4.823815768575E-01
     30 T   8 O    -1.644562071980E-01 -1.658463321868E-01 -1.821799809147E-01
     31 T   8 O    -1.717576145764E-01  1.762370321075E-01  1.717766583859E-01
     32 T   8 O    -1.840357108656E-01  1.749608946293E-01 -4.959839659549E-01
     33 T   8 O    -1.722787050305E-01  1.738677929360E-01 -1.740745293341E-01
     34 T   8 O    -1.763373164780E-01 -4.950015878229E-01  1.766284743590E-01
     35 T   8 O    -1.871619268821E-01 -4.904777412251E-01 -4.965993246849E-01
     36 T   8 O    -1.689054135116E-01 -4.844374917774E-01 -1.802093278889E-01
     37 T   8 O     1.724156071970E-01 -1.701458828621E-01  1.620430276028E-01
     38 T   8 O     1.636998601995E-01 -1.730409792097E-01 -4.956963084953E-01
     39 T   8 O     1.780025853679E-01 -1.667947897642E-01 -1.655129341248E-01
     40 T   8 O     1.703325013217E-01  1.693933904213E-01  1.638390824592E-01
     41 T   8 O     1.700116484411E-01  1.621521906011E-01 -4.947914306025E-01
     42 T   8 O     1.729450230033E-01  1.629106894897E-01 -1.735759130487E-01
     43 T   8 O     1.785490798123E-01  4.968989710545E-01  1.552613509116E-01
     44 T   8 O     1.605032595995E-01 -4.953737791602E-01 -4.935261679594E-01
     45 T   8 O     1.704567948363E-01  4.982009442303E-01 -1.640886805277E-01
     46 T   8 O    -4.936100172006E-01 -1.733877600586E-01  1.731026144655E-01
     47 T   8 O    -4.932568026804E-01 -1.743354430865E-01 -4.927312485454E-01
     48 T   8 O     4.975347911675E-01 -1.701809891896E-01 -1.802398259777E-01
     49 T   8 O     4.935383727539E-01  1.729067684716E-01  1.609742098049E-01
     50 T   8 O    -4.895922449600E-01  1.575993061959E-01 -4.912518763501E-01
     51 T   8 O    -4.952538172262E-01  1.651145865818E-01 -1.695046866570E-01
     52 T   8 O     4.976272157573E-01 -4.976290870100E-01  1.656346357953E-01
     53 T   8 O    -4.765088613827E-01  4.906201041611E-01  4.930152007174E-01
     54 T   8 O     4.953810984953E-01  4.999342403651E-01 -1.623619522577E-01

 T = ATOM BELONGING TO THE ASYMMETRIC UNIT
 *******************************************************************************
 * GEOMETRY EDITING - INPUT COORDINATES ARE GIVEN IN ANGSTROM         
 *******************************************************************************

 GCALCO - MAX INDICES DIRECT LATTICE VECTOR    14    14    14
 NO.OF VECTORS CREATED 6999 STARS 3500 RMAX   198.27330 BOHR

 GEOMETRY FOR WAVE FUNCTION - DIMENSIONALITY OF THE SYSTEM    3
 (NON PERIODIC DIRECTION: LATTICE PARAMETER FORMALLY SET TO 500)
 *******************************************************************************
 LATTICE PARAMETERS (ANGSTROMS AND DEGREES) - BOHR = 0.5291772083 ANGSTROM
 PRIMITIVE CELL - CENTRING CODE 1/0 VOLUME=   687.604227 - DENSITY  3.301 g/cm^3
         A              B              C           ALPHA      BETA       GAMMA 
     9.91985647     9.91102076     9.90274853    60.001496  60.018684  59.820683
 *******************************************************************************
 ATOMS IN THE ASYMMETRIC UNIT   54 - ATOMS IN THE UNIT CELL:   54
     ATOM                 X/A                 Y/B                 Z/C    
 *******************************************************************************
      1 T  20 CA    3.244801938714E-03 -1.467615609901E-03 -1.970569253735E-03
      2 T  20 CA   -4.772026080094E-03  2.199111165216E-04  3.389748347568E-01
      3 T  20 CA   -2.439509623968E-03  1.337155548602E-04 -3.350021053428E-01
      4 T  20 CA    1.541380754446E-03  3.409202938807E-01 -3.192056742411E-03
      5 T  20 CA   -4.878487616178E-03  3.362310369395E-01  3.338375247445E-01
      6 T  20 CA   -5.557303299819E-03  3.384502193748E-01 -3.336425812823E-01
      7 T  20 CA    3.305353043698E-03 -3.334333717806E-01 -1.786307064777E-03
      8 T  20 CA   -2.363544606199E-03 -3.313217866917E-01  3.358947032756E-01
      9 T  12 MG   -1.376723445381E-02 -3.380586398139E-01 -3.368077866694E-01
     10 T  20 CA    3.371783970949E-01 -2.370048763710E-03 -4.890986490841E-03
     11 T  20 CA    3.382197641734E-01 -2.032682432674E-03  3.345494513889E-01
     12 T  12 MG    3.348043304498E-01 -1.008588304409E-02 -3.240601881199E-01
     13 T  12 MG    3.368125374658E-01  3.344940060928E-01  3.060276476741E-03
     14 T  20 CA    3.369529582509E-01  3.332255341299E-01  3.333202304705E-01
     15 T  20 CA    3.395965811885E-01  3.316293847481E-01 -3.328211587525E-01
     16 T  12 MG    3.340177095102E-01 -3.349002712536E-01 -7.239584419255E-03
     17 T  20 CA    3.378257560595E-01 -3.371540158578E-01  3.342272496122E-01
     18 T  20 CA    3.391697384325E-01 -3.387252705706E-01 -3.298598575616E-01
     19 T  20 CA   -3.349596145859E-01  2.165916359007E-03 -3.685596565631E-03
     20 T  20 CA   -3.364987993330E-01 -1.840537549430E-03  3.412387417201E-01
     21 T  12 MG   -3.365236164093E-01  1.052232475781E-03 -3.383752618583E-01
     22 T  20 CA   -3.401605705794E-01  3.396071847376E-01 -2.104694869142E-03
     23 T  12 MG   -3.286050499214E-01  3.332616984793E-01  3.430732426911E-01
     24 T  12 MG   -3.325828547784E-01  3.355073531715E-01 -3.396542921819E-01
     25 T  20 CA   -3.363607179258E-01 -3.316704527859E-01 -3.384182724311E-03
     26 T  12 MG   -3.324699642137E-01 -3.454798142536E-01  3.395155261389E-01
     27 T  12 MG   -3.390983702030E-01 -3.248189707698E-01 -3.348888959150E-01
     28 T   8 O    -1.673984707945E-01 -1.659709289194E-01  1.681088002190E-01
     29 T   8 O    -1.720763739008E-01 -1.717132448555E-01 -4.823815768575E-01
     30 T   8 O    -1.644562071980E-01 -1.658463321868E-01 -1.821799809147E-01
     31 T   8 O    -1.717576145764E-01  1.762370321075E-01  1.717766583859E-01
     32 T   8 O    -1.840357108656E-01  1.749608946293E-01 -4.959839659549E-01
     33 T   8 O    -1.722787050305E-01  1.738677929360E-01 -1.740745293341E-01
     34 T   8 O    -1.763373164780E-01 -4.950015878229E-01  1.766284743590E-01
     35 T   8 O    -1.871619268821E-01 -4.904777412251E-01 -4.965993246849E-01
     36 T   8 O    -1.689054135116E-01 -4.844374917774E-01 -1.802093278889E-01
     37 T   8 O     1.724156071970E-01 -1.701458828621E-01  1.620430276028E-01
     38 T   8 O     1.636998601995E-01 -1.730409792097E-01 -4.956963084953E-01
     39 T   8 O     1.780025853679E-01 -1.667947897642E-01 -1.655129341248E-01
     40 T   8 O     1.703325013217E-01  1.693933904213E-01  1.638390824592E-01
     41 T   8 O     1.700116484411E-01  1.621521906011E-01 -4.947914306025E-01
     42 T   8 O     1.729450230033E-01  1.629106894897E-01 -1.735759130487E-01
     43 T   8 O     1.785490798123E-01  4.968989710545E-01  1.552613509116E-01
     44 T   8 O     1.605032595995E-01 -4.953737791602E-01 -4.935261679594E-01
     45 T   8 O     1.704567948363E-01  4.982009442303E-01 -1.640886805277E-01
     46 T   8 O    -4.936100172006E-01 -1.733877600586E-01  1.731026144655E-01
     47 T   8 O    -4.932568026804E-01 -1.743354430865E-01 -4.927312485454E-01
     48 T   8 O     4.975347911675E-01 -1.701809891896E-01 -1.802398259777E-01
     49 T   8 O     4.935383727539E-01  1.729067684716E-01  1.609742098049E-01
     50 T   8 O    -4.895922449600E-01  1.575993061959E-01 -4.912518763501E-01
     51 T   8 O    -4.952538172262E-01  1.651145865818E-01 -1.695046866570E-01
     52 T   8 O     4.976272157573E-01 -4.976290870100E-01  1.656346357953E-01
     53 T   8 O    -4.765088613827E-01  4.906201041611E-01  4.930152007174E-01
     54 T   8 O     4.953810984953E-01  4.999342403651E-01 -1.623619522577E-01

 T = ATOM BELONGING TO THE ASYMMETRIC UNIT

 ****    1 SYMMOPS - TRANSLATORS IN FRACTIONAL UNITS
 **** MATRICES AND TRANSLATORS IN THE CRYSTALLOGRAPHIC REFERENCE FRAME
   V INV                    ROTATION MATRICES                   TRANSLATORS
   1   1  1.00  0.00  0.00  0.00  1.00  0.00  0.00  0.00  1.00  0.00  0.00  0.00

 DIRECT LATTICE VECTORS CARTESIAN COMPONENTS (ANGSTROM)
          X                    Y                    Z
   0.804817485251E-02   0.700232041375E+01   0.702644977555E+01
   0.699644676229E+01   0.619592253318E-02   0.701983096349E+01
   0.700486648821E+01   0.699973336195E+01   0.262226414258E-02


 CARTESIAN COORDINATES - PRIMITIVE CELL
 *******************************************************************************
 *      ATOM          X(ANGSTROM)         Y(ANGSTROM)         Z(ANGSTROM)
 *******************************************************************************
    1    20 CA   -2.404555427700E-02  8.918590274000E-03  1.249185700000E-02
    2    20 CA    2.375973650653E+00  2.339319566625E+00 -3.109778116000E-02
    3    20 CA   -2.345729121035E+00 -2.362006812640E+00 -1.708089526600E-02
    4    20 CA    2.362883160319E+00 -9.437988420000E-03  2.404024899106E+00
    5    20 CA    4.690870576445E+00  2.304696187460E+00  2.326882005949E+00
    6    20 CA    3.078247872800E-02 -2.372226114170E+00  2.335940318066E+00
    7    20 CA   -2.345335074870E+00  8.575540595000E-03 -2.317425694503E+00
    8    20 CA    3.480328654700E-02  2.332570219852E+00 -2.341549459929E+00
    9    12 MG   -4.724613654909E+00 -2.456061872915E+00 -2.470732487661E+00
   10    20 CA   -4.812895666700E-02  2.326780887102E+00  2.352516905433E+00
   11    20 CA    2.331974738059E+00  4.710067520771E+00  2.363092376013E+00
   12    12 MG   -2.337869131900E+00  7.600979630800E-02  2.280834847044E+00
   13    12 MG    2.364417060264E+00  2.381962925004E+00  4.714695784204E+00
   14    20 CA    4.668970277966E+00  4.694669955067E+00  4.707644013872E+00
   15    20 CA   -8.407313647000E-03  5.035945439100E-02  4.713267800137E+00
   16    12 MG   -2.391136007859E+00  2.286148849134E+00 -4.003617912001E-03
   17    20 CA   -1.494398163200E-02  4.702976837365E+00  7.827939988001E-03
   18    20 CA   -4.677767887269E+00  6.394541787400E-02  4.500010338000E-03
   19    20 CA   -1.335920692100E-02 -2.371279320386E+00 -2.338382206612E+00
   20    20 CA    2.374746402201E+00  3.229638920800E-02 -2.376417357409E+00
   21    12 MG   -2.365620044639E+00 -4.724976278629E+00 -2.358067104188E+00
   22    20 CA    2.358562809801E+00 -2.394541430405E+00 -6.141653020000E-03
   23    12 MG    4.732185321150E+00  1.024882369980E-01  3.141353932800E-02
   24    12 MG   -3.455031902900E-02 -4.704262416224E+00  1.743751769100E-02
   25    20 CA   -2.346927503568E+00 -2.381048902666E+00 -4.691701079336E+00
   26    12 MG   -4.154597299900E-02  4.631637167600E-02 -4.760403103395E+00
   27    12 MG   -4.621159763617E+00 -4.720620970405E+00 -4.663710102885E+00
   28     8 O     1.502568059200E-02  3.510705037001E-03 -2.340863987730E+00
   29     8 O     2.423080469194E+00  2.417193117578E+00 -2.413126619620E+00
   30     8 O    -2.437805049309E+00 -2.427813918145E+00 -2.320234222052E+00
   31     8 O     2.434923235154E+00  7.809067410000E-04  3.075836628400E-02
   32     8 O     4.753188459579E+00  2.240384877559E+00 -6.360011061300E-02
   33     8 O    -4.298609171000E-03 -2.423748712159E+00  9.558378716000E-03
   34     8 O     4.769034193183E+00  4.710764803000E-03  2.306441359041E+00
   35     8 O     7.089593566464E+00  2.216259680592E+00  2.262996299143E+00
   36     8 O     2.343403979319E+00 -2.440952684222E+00  2.431883697519E+00
   37     8 O    -5.393920661000E-02  2.340513101598E+00  1.749918728600E-02
   38     8 O     2.323225514865E+00  4.675198098281E+00 -6.316716036500E-02
   39     8 O    -2.324934276497E+00  8.685128279800E-02  7.942097763800E-02
   40     8 O     2.334193601898E+00  2.340602190936E+00  2.386375362122E+00
   41     8 O     4.674776029732E+00  4.727805996821E+00  2.334184067725E+00
   42     8 O    -7.468823866800E-02 -2.959262354000E-03  2.358339858534E+00
   43     8 O     4.565549225349E+00  2.340124671755E+00  4.743120060780E+00
   44     8 O     7.079663820475E+00  4.672203655229E+00  4.671486970597E+00
   45     8 O     2.337588949996E+00  4.810289719300E-02  4.694562238303E+00
   46     8 O     3.537985733001E-03  4.756502762260E+00  2.341424935011E+00
   47     8 O     2.337699589103E+00  7.098044069251E+00  2.338130476313E+00
   48     8 O    -2.449213900656E+00  2.221212873469E+00  2.300788807984E+00
   49     8 O     2.341307931300E+00  4.583761686231E+00  4.682020992474E+00
   50     8 O     4.670455688727E+00  7.136116329487E+00  4.694009017261E+00
   51     8 O    -2.807999892600E-02  2.348929926387E+00  4.705205704009E+00
   52     8 O     4.679064848071E+00  4.647056148666E+00  7.023545866396E+00
   53     8 O     6.890316245173E+00  7.119667478926E+00  7.123647208023E+00
   54     8 O     2.364426412729E+00  2.335424358475E+00  6.989798512632E+00
 WARNING **** CRYSTA **** TESTGEOM  DIRECTIVE - GEOMETRY EDITING COMPLETE
 TTTTTTTTTTTTTTTTTTTTTTTTTTTTTT END         TELAPSE        0.01 TCPU        0.01
 EEEEEEEEEE TERMINATION  DATE 10 03 2023 TIME 10:31:16.9
Fri 10 Mar 2023 10:31:16 GMT
Contents of temporary directory:
total 8
-rw-r--r--  1 brunocamino  admin  4027 10 Mar 10:31 fort.34
SCF abnormal end - no wf written in fort.9
geometry input file fort.34 saved as /Users/brunocamino/Desktop/Imperial/cmsg_icl/solid-solutions/./data/crystal/testgeom_opt/CaMgO_testgeom_2613.gui
temporary directory /Users/brunocamino/crystal/tmp removed
