date Fri 10 Mar 2023 10:28:54 GMT
hostname MacBook-Pro-8
system Darwin MacBook-Pro-8 21.6.0 Darwin Kernel Version 21.6.0: Mon Aug 22 20:20:05 PDT 2022; root:xnu-8020.140.49~2/RELEASE_ARM64_T8101 arm64
user brunocamino
output data in /Users/brunocamino/Desktop/Imperial/cmsg_icl/solid-solutions/./data/crystal/testgeom_opt/CaMgO_testgeom_847.out
crystal executable in /Users/brunocamino/crystal
input data in /Users/brunocamino/Desktop/Imperial/cmsg_icl/solid-solutions/./data/crystal/testgeom_opt/CaMgO_testgeom_847.d12
temporary directory /Users/brunocamino/crystal/tmp
external geometry input from /Users/brunocamino/Desktop/Imperial/cmsg_icl/solid-solutions/./data/crystal/testgeom_opt/CaMgO_testgeom_847.gui
external geometry input saved in /Users/brunocamino/Desktop/Imperial/cmsg_icl/solid-solutions/./data/crystal/testgeom_opt/CaMgO_testgeom_847_inp.gui
Bulk 
EXTERNAL
EXTPRT
TESTGEOM
END

         
 *******************************************************************************
 *                                                                             *
 *                               CRYSTAL17                                     *
 *                      public : 1.0.1 - Feb 1st, 2017                         *
 *                       HTTP://WWW.CRYSTAL.UNITO.IT                           *
 *                                                                             *
 *                              MAIN AUTHORS                                   *
 *                                                                             *
 *  R. DOVESI(1,11), V.R. SAUNDERS(2), C. ROETTI(1,11), R. ORLANDO(1,11),      *
 *  C.M. ZICOVICH-WILSON(1,3), F. PASCALE(4), B. CIVALLERI(1,11),              *
 *  K. DOLL(5), N.M. HARRISON(2,6), I.J. BUSH(7), Ph. D'ARCO(8),               *
 *  M. LLUNELL(9), M. CAUSA'(10), Y. NOEL(8), L. MASCHIO(1,11), A. ERBA(1,11)  *
 *  M. RE'RAT(14), S. CASASSA(1,11)                                            *
 *                                                                             *
 *        CONTRIBUTIONS TO THE CODE HAVE ALSO BEEN GIVEN BY                    *
 *                                                                             *
 *  M. FERRABONE(1,11), M. DE LA PIERRE(1,11), M. FERRERO(1,11),               *
 *  J. BAIMA(1,11), E. ALBANESE(1,11), M.F. PEINTINGER(12), R. BAST(13),       *
 *  B. KIRTMAN(15), V. LACIVITA(1,11), R. DEMICHELIS(1,16)                     *
 *  G. BRANDEBURG(17), S. SALUSTRO(1,11), G. SANSONE(1,11)                     *
 *  M.T. RUGGIERO(18)                                                          *
 *                                                                             *
 * (1) THEORETICAL CHEMISTRY GROUP - UNIVERSITA' DI TORINO - TORINO (ITALY)    *

 * (2) COMPUTATIONAL SCIENCE & ENGINEERING DEPARTMENT - STFC DARESBURY (UK)    *
 * (3) UNIVERSIDAD AUTONOMA DEL ESTADO DE MORELOS - CUERNAVACA (MEXICO)        *
 * (4) UNIVERSITE' DE LORRAINE - NANCY (FRANCE)                                *
 * (5) UNIVERSITAET STUTTGART- STUTTGART (GERMANY)                             *
 * (6) IMPERIAL COLLEGE - LONDON (UK)                                          *
 * (7) OXFORD E-RESEARCH CENTRE - OXFORD (UK)                                  *
 * (8) UPMC - SORBONNE UNIVERSITES - PARIS (FRANCE)                            *
 * (9) UNIVERSIDAD DE BARCELONA - BARCELONA (SPAIN)                            *
 *(10) UNIVERSITA' DI NAPOLI "FEDERICO II" - NAPOLI (ITALY)                    *
 *(11) NIS - NANOSTRUCTURED INTERFACES AND SURFACES - TORINO (ITALY)           *
 *(12) MPI FUER CHEMISCHE ENERGIEKONVERSION - MUELHEIM AN DER RUHR (GERMANY)   *
 *(13) UNIVERSITY OF TROMSO - TROMSO (NORWAY)                                  *
 *(14) UNIVERSITE' DE PAU ET DES PAYS DE L'ADOUR - PAU (FRANCE)                *
 *(15) UNIVERSITY OF CALIFORNIA SANTA BARBARA - SANTA BARBARA (USA)            *
 *(16) CURTIN UNIVERSITY - PERTH (AUSTRALIA)                                   *
 *(17) UNIVERSITY COLLEGE LONDON - LONDON (UK)                                 *
 *(18) CAMBRIDGE UNIVERSITY - CAMBRIDGE (UK)                                   *
 *                                                                             *
 *******************************************************************************
 EEEEEEEEEE STARTING  DATE 10 03 2023 TIME 10:28:54.6
 Bulk                                                                            

 GEOMETRY INPUT FROM EXTERNAL FILE (FORTRAN UNIT 34)
 3D - CRYSTAL 

 *******************************************************************************
 LATTICE PARAMETERS  (ANGSTROMS AND DEGREES) - PRIMITIVE CELL
       A          B          C        ALPHA      BETA     GAMMA        VOLUME
    9.91543    9.91703    9.90091    59.96278  59.96478  59.89238    687.482147
 INFORMATION **** CHKGRP **** SPGR WITH NO INVERSION

 NUMBER OF IRREDUCIBLE ATOMS IN THE CELL:   54

 CARTESIAN COORDINATES (ANGSTROM) - IRREDUCIBLE ATOMS AND SYMMETRY RELATED

 AT.IRR.  AT  AT.N.          X                   Y                   Z
     1     1    20   -8.405611093000E-03  1.428340376200E-02  3.718888327000E-03
     2     2    20    2.321570353133E+00  2.351638757837E+00 -4.334435184800E-02
     3     3    20   -2.364178580793E+00 -2.323502587531E+00 -1.555318136600E-02
     4     4    20    2.324226309813E+00 -4.371429199300E-02  2.337911211147E+00
     5     5    20    4.704139811274E+00  2.307938457062E+00  2.338978164369E+00
     6     6    20    5.158050192600E-02 -2.355237701216E+00  2.369335351400E+00
     7     7    20   -2.364316229345E+00  1.096218979100E-02 -2.316674056165E+00
     8     8    20    4.109857370200E-02  2.343979711343E+00 -2.340946581703E+00
     9     9    12   -4.736896737637E+00 -2.261067929817E+00 -2.284292670990E+00
    10    10    20   -4.042642825100E-02  2.347013126521E+00  2.325231548218E+00
    11    11    20    2.308393542007E+00  4.734515000802E+00  2.329891018021E+00
    12    12    20   -2.394332919317E+00  3.740290339600E-02  2.339641845812E+00
    13    13    20    2.347955674674E+00  2.324160249695E+00  4.756183918285E+00
    14    14    20    4.689941458382E+00  4.683504399484E+00  4.735757568023E+00
    15    15    12    8.810722996800E-02 -7.282497754400E-02  4.713455096955E+00
    16    16    12   -2.412552927647E+00  2.372352788999E+00  6.701422178200E-02
    17    17    12    5.725175369500E-02  4.727985063684E+00 -2.919943190000E-04
    18    18    12   -4.728294847286E+00 -4.695115511200E-02 -1.272079794700E-02
    19    19    20    2.382564855700E-02 -2.300462000484E+00 -2.360154047974E+00
    20    20    12    2.285440071937E+00 -3.151237879600E-02 -2.347548146581E+00
    21    21    20   -2.388043667137E+00 -4.691517252010E+00 -2.378901786522E+00
    22    22    12    2.342505693878E+00 -2.348474304829E+00 -1.454100888500E-02
    23    23    20    4.703951336350E+00 -5.927718041700E-02 -9.299443706000E-03
    24    24    20    6.577153826000E-02 -4.727202317984E+00 -1.015464100500E-02
    25    25    20   -2.363366130884E+00 -2.349860489807E+00 -4.715917831837E+00
    26    26    12    1.050180142380E-01  1.267745333100E-02 -4.677451969813E+00
    27    27    12   -4.657428481436E+00 -4.698017598427E+00 -4.715526072549E+00
    28    28     8    7.425462615000E-02  3.724182852000E-03 -2.395774305951E+00
    29    29     8    2.326386415137E+00  2.312331842740E+00 -2.415327785932E+00
    30    30     8   -2.403790987465E+00 -2.323128551719E+00 -2.350215059267E+00
    31    31     8    2.326583122578E+00 -8.071800622300E-02 -8.598374822200E-02
    32    32     8    4.680833715625E+00  2.319524975606E+00 -1.007320486100E-02
    33    33     8    8.384189047000E-02 -2.342043090700E+00  4.468864248000E-03
    34    34     8    4.730182727909E+00  2.979183221000E-03  2.320379381697E+00
    35    35     8    7.086707051108E+00  2.231609986491E+00  2.330435830878E+00
    36    36     8    2.323626488957E+00 -2.412736932720E+00  2.327862260633E+00
    37    37     8   -6.218714297300E-02  2.416947854664E+00  2.585435488000E-03
    38    38     8    2.263665509258E+00  4.745807951753E+00 -8.620314487600E-02
    39    39     8   -2.447397573566E+00  6.204684808900E-02  5.931267642000E-03
    40    40     8    2.336578286659E+00  2.338644613403E+00  2.347842104741E+00
    41    41     8    4.668187136868E+00  4.661699144986E+00  2.357712762517E+00
    42    42     8    2.051919290000E-03 -5.894616720000E-04  2.404071833774E+00
    43    43     8    4.673980166735E+00  2.337282498935E+00  4.749551456364E+00
    44    44     8    7.130254043075E+00  4.783297880948E+00  4.790707540891E+00
    45    45     8    2.239484551744E+00 -8.558600326100E-02  4.752723823550E+00
    46    46     8    1.268869537000E-02  4.770553296105E+00  2.245413324483E+00
    47    47     8    2.222590652113E+00  7.089019671147E+00  2.366068787261E+00
    48    48     8   -2.444019078619E+00  2.331333817085E+00  2.238597860735E+00
    49    49     8    2.336824851490E+00  4.770206276073E+00  4.760948577356E+00
    50    50     8    4.667991490703E+00  6.996542831604E+00  4.692017217768E+00
    51    51     8    9.343435779000E-03  2.263056089038E+00  4.671962377524E+00
    52    52     8    4.666162698014E+00  4.567058266200E+00  7.012930081621E+00
    53    53     8    7.149947531313E+00  6.910181974026E+00  7.001682813356E+00
    54    54     8    2.429538082726E+00  2.384724695475E+00  7.094182618444E+00

 SYMMETRY CHANGED DURING OLD RUN :  INFORMATION ON SPACE GROUP LOST 
 NUMBER OF SYMMETRY OPERATORS         :    1
 *******************************************************************************
 LATTICE PARAMETERS (ANGSTROMS AND DEGREES) - BOHR = 0.5291772083 ANGSTROM
 PRIMITIVE CELL - CENTRING CODE 1/0 VOLUME=   687.482147 - DENSITY  3.302 g/cm^3
         A              B              C           ALPHA      BETA       GAMMA 
     9.91543414     9.91702648     9.90091388    59.962775  59.964784  59.892380
 *******************************************************************************
 ATOMS IN THE ASYMMETRIC UNIT   54 - ATOMS IN THE UNIT CELL:   54
     ATOM                 X/A                 Y/B                 Z/C    
 *******************************************************************************
      1 T  20 CA    1.885738368239E-03 -1.355855591591E-03  1.537868911784E-04
      2 T  20 CA   -9.835463572943E-04 -5.645405706436E-03  3.370707503583E-01
      3 T  20 CA    1.837793851999E-03 -3.604281014000E-03 -3.339033955604E-01
      4 T  20 CA   -2.479032891881E-03  3.355723980309E-01 -3.817209966199E-03
      5 T  20 CA   -4.463195310916E-03  3.372535265400E-01  3.342560945769E-01
      6 T  20 CA   -2.975348642187E-03  3.409894599245E-01 -3.336733940376E-01
      7 T  20 CA    4.517901828253E-03 -3.345762395128E-01 -2.904752791139E-03
      8 T  20 CA   -2.425517724148E-03 -3.315497898819E-01  3.374696030318E-01
      9 T  12 MG    1.404956271741E-02 -3.390435365714E-01 -3.371538382161E-01
     10 T  20 CA    3.362886912297E-01 -4.960496820008E-03 -1.220428064060E-03
     11 T  20 CA    3.393422598129E-01 -7.804706062903E-03  3.369338858081E-01
     12 T  20 CA    3.405211013172E-01 -6.689544743207E-03 -3.355358351101E-01
     13 T  20 CA    3.373497758743E-01  3.403288373010E-01 -5.601583318632E-03
     14 T  20 CA    3.370920484445E-01  3.372223951903E-01  3.318434079359E-01
     15 T  12 MG    3.245488355703E-01  3.474839823510E-01 -3.353541633946E-01
     16 T  12 MG    3.465590359708E-01 -3.369549460914E-01 -7.829359699681E-03
     17 T  12 MG    3.335628246111E-01 -3.340201310890E-01  3.418362180289E-01
     18 T  12 MG    3.335186494232E-01 -3.348287927033E-01 -3.405311562282E-01
     19 T  20 CA   -3.342678662693E-01 -2.041793772985E-03  5.851403513265E-03
     20 T  12 MG   -3.328850139261E-01 -2.062815473507E-03  3.287348355192E-01
     21 T  20 CA   -3.340755315247E-01 -4.445199083135E-03 -3.360592847329E-01
     22 T  12 MG   -3.361085520199E-01  3.339913279546E-01  7.808466938802E-04
     23 T  20 CA   -3.409363766660E-01  3.391186892541E-01  3.327744337553E-01
     24 T  20 CA   -3.430402196157E-01  3.419949999189E-01 -3.322381256829E-01
     25 T  20 CA   -3.352136461657E-01 -3.367200473756E-01 -2.103243875618E-04
     26 T  12 MG   -3.400741887787E-01 -3.268405597019E-01  3.422968164311E-01
     27 T  12 MG   -3.390088407153E-01 -3.324232105247E-01 -3.319994769586E-01
     28 T   8 O    -1.758445249342E-01 -1.657487653783E-01  1.765886973933E-01
     29 T   8 O    -1.732446620816E-01 -1.715744576031E-01 -4.960775397141E-01
     30 T   8 O    -1.617546024651E-01 -1.728795575066E-01 -1.700580702530E-01
     31 T   8 O    -1.781009850044E-01  1.656027923400E-01  1.667286833825E-01
     32 T   8 O    -1.694455744239E-01  1.673139114262E-01 -4.989045850924E-01
     33 T   8 O    -1.729400281244E-01  1.737712450894E-01 -1.616170843870E-01
     34 T   8 O    -1.722702606596E-01 -4.973942411084E-01  1.728017398579E-01
     35 T   8 O    -1.807288997169E-01 -4.879438007594E-01  4.997734726986E-01
     36 T   8 O    -1.723486607886E-01 -4.957854227169E-01 -1.723629575055E-01
     37 T   8 O     1.772457074872E-01 -1.770799125416E-01  1.680123860187E-01
     38 T   8 O     1.710894560539E-01 -1.840304471149E-01 -4.929938920318E-01
     39 T   8 O     1.796908875911E-01 -1.785920508666E-01 -1.709866770205E-01
     40 T   8 O     1.674951088958E-01  1.668064756135E-01  1.665298888259E-01
     41 T   8 O     1.675468900868E-01  1.677144572386E-01  4.984780841236E-01
     42 T   8 O     1.712088073982E-01  1.715591966600E-01 -1.715009532004E-01
     43 T   8 O     1.716481100504E-01 -4.951619992980E-01  1.621260096162E-01
     44 T   8 O     1.738064708647E-01 -4.919238010886E-01 -4.904619724018E-01
     45 T   8 O     1.727474953605E-01 -4.953419800465E-01 -1.852396342222E-01
     46 T   8 O     4.998933452862E-01 -1.801610707900E-01  1.813893361831E-01
     47 T   8 O    -4.837897262443E-01 -1.797094867253E-01  4.963994828296E-01
     48 T   8 O    -4.993003511938E-01 -1.814682533154E-01 -1.680195479368E-01
     49 T   8 O    -4.868183023228E-01  1.649655055438E-01  1.679844006164E-01
     50 T   8 O    -4.992607098278E-01  1.671406544355E-01  4.986173594455E-01
     51 T   8 O     4.940463996271E-01  1.718764051204E-01 -1.711713297938E-01
     52 T   8 O     4.928243924800E-01 -4.938222515871E-01  1.592780361138E-01
     53 T   8 O     4.819328098630E-01 -4.849996761036E-01 -4.949518160425E-01
     54 T   8 O    -4.974659356686E-01 -4.915217336659E-01 -1.623312718977E-01

 T = ATOM BELONGING TO THE ASYMMETRIC UNIT
 *******************************************************************************
 * GEOMETRY EDITING - INPUT COORDINATES ARE GIVEN IN ANGSTROM         
 *******************************************************************************

 GCALCO - MAX INDICES DIRECT LATTICE VECTOR    14    14    14
 NO.OF VECTORS CREATED 6999 STARS 3500 RMAX   198.19449 BOHR

 GEOMETRY FOR WAVE FUNCTION - DIMENSIONALITY OF THE SYSTEM    3
 (NON PERIODIC DIRECTION: LATTICE PARAMETER FORMALLY SET TO 500)
 *******************************************************************************
 LATTICE PARAMETERS (ANGSTROMS AND DEGREES) - BOHR = 0.5291772083 ANGSTROM
 PRIMITIVE CELL - CENTRING CODE 1/0 VOLUME=   687.482147 - DENSITY  3.302 g/cm^3
         A              B              C           ALPHA      BETA       GAMMA 
     9.91543414     9.91702648     9.90091388    59.962775  59.964784  59.892380
 *******************************************************************************
 ATOMS IN THE ASYMMETRIC UNIT   54 - ATOMS IN THE UNIT CELL:   54
     ATOM                 X/A                 Y/B                 Z/C    
 *******************************************************************************
      1 T  20 CA    1.885738368239E-03 -1.355855591591E-03  1.537868911784E-04
      2 T  20 CA   -9.835463572943E-04 -5.645405706436E-03  3.370707503583E-01
      3 T  20 CA    1.837793851999E-03 -3.604281014000E-03 -3.339033955604E-01
      4 T  20 CA   -2.479032891881E-03  3.355723980309E-01 -3.817209966199E-03
      5 T  20 CA   -4.463195310916E-03  3.372535265400E-01  3.342560945769E-01
      6 T  20 CA   -2.975348642187E-03  3.409894599245E-01 -3.336733940376E-01
      7 T  20 CA    4.517901828253E-03 -3.345762395128E-01 -2.904752791139E-03
      8 T  20 CA   -2.425517724148E-03 -3.315497898819E-01  3.374696030318E-01
      9 T  12 MG    1.404956271741E-02 -3.390435365714E-01 -3.371538382161E-01
     10 T  20 CA    3.362886912297E-01 -4.960496820008E-03 -1.220428064060E-03
     11 T  20 CA    3.393422598129E-01 -7.804706062903E-03  3.369338858081E-01
     12 T  20 CA    3.405211013172E-01 -6.689544743207E-03 -3.355358351101E-01
     13 T  20 CA    3.373497758743E-01  3.403288373010E-01 -5.601583318632E-03
     14 T  20 CA    3.370920484445E-01  3.372223951903E-01  3.318434079359E-01
     15 T  12 MG    3.245488355703E-01  3.474839823510E-01 -3.353541633946E-01
     16 T  12 MG    3.465590359708E-01 -3.369549460914E-01 -7.829359699680E-03
     17 T  12 MG    3.335628246111E-01 -3.340201310890E-01  3.418362180289E-01
     18 T  12 MG    3.335186494232E-01 -3.348287927033E-01 -3.405311562282E-01
     19 T  20 CA   -3.342678662693E-01 -2.041793772985E-03  5.851403513265E-03
     20 T  12 MG   -3.328850139261E-01 -2.062815473507E-03  3.287348355192E-01
     21 T  20 CA   -3.340755315247E-01 -4.445199083135E-03 -3.360592847329E-01
     22 T  12 MG   -3.361085520199E-01  3.339913279546E-01  7.808466938801E-04
     23 T  20 CA   -3.409363766660E-01  3.391186892541E-01  3.327744337553E-01
     24 T  20 CA   -3.430402196157E-01  3.419949999189E-01 -3.322381256829E-01
     25 T  20 CA   -3.352136461657E-01 -3.367200473756E-01 -2.103243875617E-04
     26 T  12 MG   -3.400741887787E-01 -3.268405597019E-01  3.422968164311E-01
     27 T  12 MG   -3.390088407153E-01 -3.324232105247E-01 -3.319994769586E-01
     28 T   8 O    -1.758445249342E-01 -1.657487653783E-01  1.765886973933E-01
     29 T   8 O    -1.732446620816E-01 -1.715744576031E-01 -4.960775397141E-01
     30 T   8 O    -1.617546024651E-01 -1.728795575066E-01 -1.700580702530E-01
     31 T   8 O    -1.781009850044E-01  1.656027923400E-01  1.667286833825E-01
     32 T   8 O    -1.694455744239E-01  1.673139114262E-01 -4.989045850924E-01
     33 T   8 O    -1.729400281244E-01  1.737712450894E-01 -1.616170843870E-01
     34 T   8 O    -1.722702606596E-01 -4.973942411084E-01  1.728017398579E-01
     35 T   8 O    -1.807288997169E-01 -4.879438007594E-01  4.997734726986E-01
     36 T   8 O    -1.723486607886E-01 -4.957854227169E-01 -1.723629575055E-01
     37 T   8 O     1.772457074872E-01 -1.770799125416E-01  1.680123860187E-01
     38 T   8 O     1.710894560539E-01 -1.840304471149E-01 -4.929938920318E-01
     39 T   8 O     1.796908875911E-01 -1.785920508666E-01 -1.709866770205E-01
     40 T   8 O     1.674951088958E-01  1.668064756135E-01  1.665298888259E-01
     41 T   8 O     1.675468900868E-01  1.677144572386E-01  4.984780841236E-01
     42 T   8 O     1.712088073982E-01  1.715591966600E-01 -1.715009532004E-01
     43 T   8 O     1.716481100504E-01 -4.951619992980E-01  1.621260096162E-01
     44 T   8 O     1.738064708647E-01 -4.919238010886E-01 -4.904619724018E-01
     45 T   8 O     1.727474953605E-01 -4.953419800465E-01 -1.852396342222E-01
     46 T   8 O     4.998933452862E-01 -1.801610707900E-01  1.813893361831E-01
     47 T   8 O    -4.837897262443E-01 -1.797094867253E-01  4.963994828296E-01
     48 T   8 O    -4.993003511938E-01 -1.814682533154E-01 -1.680195479368E-01
     49 T   8 O    -4.868183023228E-01  1.649655055438E-01  1.679844006164E-01
     50 T   8 O    -4.992607098278E-01  1.671406544355E-01  4.986173594455E-01
     51 T   8 O     4.940463996271E-01  1.718764051204E-01 -1.711713297938E-01
     52 T   8 O     4.928243924800E-01 -4.938222515871E-01  1.592780361138E-01
     53 T   8 O     4.819328098630E-01 -4.849996761036E-01 -4.949518160425E-01
     54 T   8 O    -4.974659356686E-01 -4.915217336659E-01 -1.623312718977E-01

 T = ATOM BELONGING TO THE ASYMMETRIC UNIT

 ****    1 SYMMOPS - TRANSLATORS IN FRACTIONAL UNITS
 **** MATRICES AND TRANSLATORS IN THE CRYSTALLOGRAPHIC REFERENCE FRAME
   V INV                    ROTATION MATRICES                   TRANSLATORS
   1   1  1.00  0.00  0.00  0.00  1.00  0.00  0.00  0.00  1.00  0.00  0.00  0.00

 DIRECT LATTICE VECTORS CARTESIAN COMPONENTS (ANGSTROM)
          X                    Y                    Z
   0.854988261661E-02   0.700457084621E+01   0.701795898437E+01
   0.700589947419E+01   0.107236153619E-02   0.701888778109E+01
   0.700484958929E+01   0.699714860867E+01   0.944195031914E-02


 CARTESIAN COORDINATES - PRIMITIVE CELL
 *******************************************************************************
 *      ATOM          X(ANGSTROM)         Y(ANGSTROM)         Z(ANGSTROM)
 *******************************************************************************
    1    20 CA   -8.405611093000E-03  1.428340376200E-02  3.718888327000E-03
    2    20 CA    2.321570353133E+00  2.351638757837E+00 -4.334435184800E-02
    3    20 CA   -2.364178580793E+00 -2.323502587531E+00 -1.555318136600E-02
    4    20 CA    2.324226309813E+00 -4.371429199300E-02  2.337911211147E+00
    5    20 CA    4.704139811274E+00  2.307938457062E+00  2.338978164369E+00
    6    20 CA    5.158050192600E-02 -2.355237701216E+00  2.369335351400E+00
    7    20 CA   -2.364316229345E+00  1.096218979100E-02 -2.316674056165E+00
    8    20 CA    4.109857370200E-02  2.343979711343E+00 -2.340946581703E+00
    9    12 MG   -4.736896737637E+00 -2.261067929817E+00 -2.284292670990E+00
   10    20 CA   -4.042642825100E-02  2.347013126521E+00  2.325231548218E+00
   11    20 CA    2.308393542007E+00  4.734515000802E+00  2.329891018021E+00
   12    20 CA   -2.394332919317E+00  3.740290339600E-02  2.339641845812E+00
   13    20 CA    2.347955674674E+00  2.324160249695E+00  4.756183918285E+00
   14    20 CA    4.689941458382E+00  4.683504399484E+00  4.735757568023E+00
   15    12 MG    8.810722996800E-02 -7.282497754400E-02  4.713455096955E+00
   16    12 MG   -2.412552927647E+00  2.372352788999E+00  6.701422178200E-02
   17    12 MG    5.725175369500E-02  4.727985063684E+00 -2.919943189995E-04
   18    12 MG   -4.728294847286E+00 -4.695115511200E-02 -1.272079794700E-02
   19    20 CA    2.382564855700E-02 -2.300462000484E+00 -2.360154047974E+00
   20    12 MG    2.285440071937E+00 -3.151237879600E-02 -2.347548146581E+00
   21    20 CA   -2.388043667137E+00 -4.691517252010E+00 -2.378901786522E+00
   22    12 MG    2.342505693878E+00 -2.348474304829E+00 -1.454100888500E-02
   23    20 CA    4.703951336350E+00 -5.927718041700E-02 -9.299443706000E-03
   24    20 CA    6.577153826000E-02 -4.727202317984E+00 -1.015464100500E-02
   25    20 CA   -2.363366130884E+00 -2.349860489807E+00 -4.715917831837E+00
   26    12 MG    1.050180142380E-01  1.267745333100E-02 -4.677451969813E+00
   27    12 MG   -4.657428481436E+00 -4.698017598427E+00 -4.715526072549E+00
   28     8 O     7.425462615000E-02  3.724182851999E-03 -2.395774305951E+00
   29     8 O     2.326386415137E+00  2.312331842740E+00 -2.415327785932E+00
   30     8 O    -2.403790987465E+00 -2.323128551719E+00 -2.350215059267E+00
   31     8 O     2.326583122578E+00 -8.071800622300E-02 -8.598374822200E-02
   32     8 O     4.680833715625E+00  2.319524975606E+00 -1.007320486100E-02
   33     8 O     8.384189047000E-02 -2.342043090700E+00  4.468864248000E-03
   34     8 O     4.730182727909E+00  2.979183221000E-03  2.320379381697E+00
   35     8 O     7.086707051108E+00  2.231609986491E+00  2.330435830878E+00
   36     8 O     2.323626488957E+00 -2.412736932720E+00  2.327862260633E+00
   37     8 O    -6.218714297300E-02  2.416947854664E+00  2.585435488000E-03
   38     8 O     2.263665509258E+00  4.745807951753E+00 -8.620314487600E-02
   39     8 O    -2.447397573566E+00  6.204684808900E-02  5.931267642000E-03
   40     8 O     2.336578286659E+00  2.338644613403E+00  2.347842104741E+00
   41     8 O     4.668187136868E+00  4.661699144986E+00  2.357712762517E+00
   42     8 O     2.051919290000E-03 -5.894616719997E-04  2.404071833774E+00
   43     8 O     4.673980166735E+00  2.337282498935E+00  4.749551456364E+00
   44     8 O     7.130254043075E+00  4.783297880948E+00  4.790707540891E+00
   45     8 O     2.239484551744E+00 -8.558600326100E-02  4.752723823550E+00
   46     8 O     1.268869537000E-02  4.770553296105E+00  2.245413324483E+00
   47     8 O     2.222590652113E+00  7.089019671147E+00  2.366068787261E+00
   48     8 O    -2.444019078619E+00  2.331333817085E+00  2.238597860735E+00
   49     8 O     2.336824851490E+00  4.770206276073E+00  4.760948577356E+00
   50     8 O     4.667991490703E+00  6.996542831604E+00  4.692017217768E+00
   51     8 O     9.343435779000E-03  2.263056089038E+00  4.671962377524E+00
   52     8 O     4.666162698014E+00  4.567058266200E+00  7.012930081621E+00
   53     8 O     7.149947531313E+00  6.910181974026E+00  7.001682813356E+00
   54     8 O     2.429538082726E+00  2.384724695475E+00  7.094182618444E+00
 WARNING **** CRYSTA **** TESTGEOM  DIRECTIVE - GEOMETRY EDITING COMPLETE
 TTTTTTTTTTTTTTTTTTTTTTTTTTTTTT END         TELAPSE        0.01 TCPU        0.01
 EEEEEEEEEE TERMINATION  DATE 10 03 2023 TIME 10:28:54.6
Fri 10 Mar 2023 10:28:54 GMT
Contents of temporary directory:
total 8
-rw-r--r--  1 brunocamino  admin  4027 10 Mar 10:28 fort.34
SCF abnormal end - no wf written in fort.9
geometry input file fort.34 saved as /Users/brunocamino/Desktop/Imperial/cmsg_icl/solid-solutions/./data/crystal/testgeom_opt/CaMgO_testgeom_847.gui
temporary directory /Users/brunocamino/crystal/tmp removed
