date Fri 10 Mar 2023 10:32:03 GMT
hostname MacBook-Pro-8
system Darwin MacBook-Pro-8 21.6.0 Darwin Kernel Version 21.6.0: Mon Aug 22 20:20:05 PDT 2022; root:xnu-8020.140.49~2/RELEASE_ARM64_T8101 arm64
user brunocamino
output data in /Users/brunocamino/Desktop/Imperial/cmsg_icl/solid-solutions/./data/crystal/testgeom_opt/CaMgO_testgeom_3185.out
crystal executable in /Users/brunocamino/crystal
input data in /Users/brunocamino/Desktop/Imperial/cmsg_icl/solid-solutions/./data/crystal/testgeom_opt/CaMgO_testgeom_3185.d12
temporary directory /Users/brunocamino/crystal/tmp
external geometry input from /Users/brunocamino/Desktop/Imperial/cmsg_icl/solid-solutions/./data/crystal/testgeom_opt/CaMgO_testgeom_3185.gui
external geometry input saved in /Users/brunocamino/Desktop/Imperial/cmsg_icl/solid-solutions/./data/crystal/testgeom_opt/CaMgO_testgeom_3185_inp.gui
Bulk 
EXTERNAL
EXTPRT
TESTGEOM
END

         
 *******************************************************************************
 *                                                                             *
 *                               CRYSTAL17                                     *
 *                      public : 1.0.1 - Feb 1st, 2017                         *
 *                       HTTP://WWW.CRYSTAL.UNITO.IT                           *
 *                                                                             *
 *                              MAIN AUTHORS                                   *
 *                                                                             *
 *  R. DOVESI(1,11), V.R. SAUNDERS(2), C. ROETTI(1,11), R. ORLANDO(1,11),      *
 *  C.M. ZICOVICH-WILSON(1,3), F. PASCALE(4), B. CIVALLERI(1,11),              *
 *  K. DOLL(5), N.M. HARRISON(2,6), I.J. BUSH(7), Ph. D'ARCO(8),               *
 *  M. LLUNELL(9), M. CAUSA'(10), Y. NOEL(8), L. MASCHIO(1,11), A. ERBA(1,11)  *
 *  M. RE'RAT(14), S. CASASSA(1,11)                                            *
 *                                                                             *
 *        CONTRIBUTIONS TO THE CODE HAVE ALSO BEEN GIVEN BY                    *
 *                                                                             *
 *  M. FERRABONE(1,11), M. DE LA PIERRE(1,11), M. FERRERO(1,11),               *
 *  J. BAIMA(1,11), E. ALBANESE(1,11), M.F. PEINTINGER(12), R. BAST(13),       *
 *  B. KIRTMAN(15), V. LACIVITA(1,11), R. DEMICHELIS(1,16)                     *
 *  G. BRANDEBURG(17), S. SALUSTRO(1,11), G. SANSONE(1,11)                     *
 *  M.T. RUGGIERO(18)                                                          *
 *                                                                             *
 * (1) THEORETICAL CHEMISTRY GROUP - UNIVERSITA' DI TORINO - TORINO (ITALY)    *

 * (2) COMPUTATIONAL SCIENCE & ENGINEERING DEPARTMENT - STFC DARESBURY (UK)    *
 * (3) UNIVERSIDAD AUTONOMA DEL ESTADO DE MORELOS - CUERNAVACA (MEXICO)        *
 * (4) UNIVERSITE' DE LORRAINE - NANCY (FRANCE)                                *
 * (5) UNIVERSITAET STUTTGART- STUTTGART (GERMANY)                             *
 * (6) IMPERIAL COLLEGE - LONDON (UK)                                          *
 * (7) OXFORD E-RESEARCH CENTRE - OXFORD (UK)                                  *
 * (8) UPMC - SORBONNE UNIVERSITES - PARIS (FRANCE)                            *
 * (9) UNIVERSIDAD DE BARCELONA - BARCELONA (SPAIN)                            *
 *(10) UNIVERSITA' DI NAPOLI "FEDERICO II" - NAPOLI (ITALY)                    *
 *(11) NIS - NANOSTRUCTURED INTERFACES AND SURFACES - TORINO (ITALY)           *
 *(12) MPI FUER CHEMISCHE ENERGIEKONVERSION - MUELHEIM AN DER RUHR (GERMANY)   *
 *(13) UNIVERSITY OF TROMSO - TROMSO (NORWAY)                                  *
 *(14) UNIVERSITE' DE PAU ET DES PAYS DE L'ADOUR - PAU (FRANCE)                *
 *(15) UNIVERSITY OF CALIFORNIA SANTA BARBARA - SANTA BARBARA (USA)            *
 *(16) CURTIN UNIVERSITY - PERTH (AUSTRALIA)                                   *
 *(17) UNIVERSITY COLLEGE LONDON - LONDON (UK)                                 *
 *(18) CAMBRIDGE UNIVERSITY - CAMBRIDGE (UK)                                   *
 *                                                                             *
 *******************************************************************************
 EEEEEEEEEE STARTING  DATE 10 03 2023 TIME 10:32:03.2
 Bulk                                                                            

 GEOMETRY INPUT FROM EXTERNAL FILE (FORTRAN UNIT 34)
 3D - CRYSTAL 

 *******************************************************************************
 LATTICE PARAMETERS  (ANGSTROMS AND DEGREES) - PRIMITIVE CELL
       A          B          C        ALPHA      BETA     GAMMA        VOLUME
    9.94880    9.94880    9.88645    60.01005  60.01005  59.56788    689.754279
 INFORMATION **** CHKGRP **** SPGR WITH NO INVERSION

 NUMBER OF IRREDUCIBLE ATOMS IN THE CELL:   36

 CARTESIAN COORDINATES (ANGSTROM) - IRREDUCIBLE ATOMS AND SYMMETRY RELATED

 AT.IRR.  AT  AT.N.          X                   Y                   Z
     1     1    20   -1.004944332000E-03 -1.004944332000E-03 -2.855655413600E-02
     2     2    20    2.339137460521E+00  2.339137460521E+00 -1.918535590100E-02
     3     3    20   -2.349365467099E+00 -2.349365467099E+00 -4.364604089800E-02
     4     4    20    2.358130750295E+00 -3.476912942400E-02  2.385354534267E+00
     5     5    20    4.730992864423E+00  2.329595138453E+00  2.377454835502E+00
     6     6    20    5.022806961100E-02 -2.395426755352E+00  2.364074298766E+00
     7     7    20   -2.352660146693E+00 -8.310269057000E-03 -2.373075492579E+00
     8     8    12    1.082706290780E-01  2.327143975715E+00 -2.333731916638E+00
     9     9    12   -4.652050751419E+00 -2.434813774813E+00 -2.382131590029E+00
     4    10    20   -3.476912942400E-02  2.358130750295E+00  2.385354534267E+00
     5    11    20    2.329595138453E+00  4.730992864423E+00  2.377454835502E+00
     6    12    20   -2.395426755352E+00  5.022806961100E-02  2.364074298766E+00
    13    13    12    2.321088669238E+00  2.321088669238E+00  4.696323789024E+00
    14    14    20    4.648526119706E+00  4.648526119706E+00  4.724757809616E+00
    15    15    20    2.301257605600E-02  2.301257605600E-02  4.699150139634E+00
    16    16    20   -2.406377942952E+00  2.322143663868E+00 -2.914388624000E-03
    17    17    20    8.102137957000E-03  4.677220270355E+00  7.299473860000E-04
    18    18    12   -4.693147136181E+00  6.407469551300E-02 -2.261591468030E-01
     7    19    20   -8.310269057000E-03 -2.352660146693E+00 -2.373075492579E+00
     8    20    12    2.327143975715E+00  1.082706290780E-01 -2.333731916638E+00
     9    21    12   -2.434813774813E+00 -4.652050751419E+00 -2.382131590029E+00
    16    22    20    2.322143663868E+00 -2.406377942952E+00 -2.914388624000E-03
    17    23    20    4.677220270355E+00  8.102137957000E-03  7.299473860000E-04
    18    24    12    6.407469551300E-02 -4.693147136181E+00 -2.261591468030E-01
    25    25    12   -2.406682068248E+00 -2.406682068248E+00 -4.637962540084E+00
    26    26    20    4.839424199800E-02  4.839424199800E-02 -4.696466473873E+00
    27    27    12   -4.687737153215E+00 -4.687737153215E+00 -4.452089864382E+00
    28    28     8    1.015745302870E-01  1.015745302870E-01 -2.322391672131E+00
    29    29     8    2.351199872461E+00  2.351199872461E+00 -2.340378629452E+00
    30    30     8   -2.450744058944E+00 -2.450744058944E+00 -2.446447167561E+00
    31    31     8    2.330561445192E+00 -1.849837113000E-03 -9.344412995200E-02
    32    32     8    4.768383609434E+00  2.325641782624E+00 -9.392240253800E-02
    33    33     8    7.095180800000E-05 -2.461733904969E+00 -1.323396020800E-02
    34    34     8    4.669840263769E+00 -7.774095608300E-02  2.356567729712E+00
    35    35     8    7.136863028425E+00  2.340707492902E+00  2.582957414434E+00
    36    36     8    2.432103851259E+00 -2.436142662704E+00  2.469164344521E+00
    31    37     8   -1.849837113000E-03  2.330561445192E+00 -9.344412995200E-02
    32    38     8    2.325641782624E+00  4.768383609434E+00 -9.392240253800E-02
    33    39     8   -2.461733904969E+00  7.095180800000E-05 -1.323396020800E-02
    40    40     8    2.337513312378E+00  2.337513312378E+00  2.432839128491E+00
    41    41     8    4.666384418701E+00  4.666384418701E+00  2.364876179035E+00
    42    42     8   -3.556046520000E-03 -3.556046520000E-03  2.325923740244E+00
    43    43     8    4.614483640132E+00  2.338031386455E+00  4.708402806273E+00
    44    44     8    7.116715917538E+00  4.578775151694E+00  4.729033305978E+00
    45    45     8    2.335875179388E+00  4.914206847200E-02  4.740186448713E+00
    34    46     8   -7.774095608300E-02  4.669840263769E+00  2.356567729712E+00
    35    47     8    2.340707492902E+00  7.136863028425E+00  2.582957414434E+00
    36    48     8   -2.436142662704E+00  2.432103851259E+00  2.469164344521E+00
    43    49     8    2.338031386455E+00  4.614483640132E+00  4.708402806273E+00
    44    50     8    4.578775151694E+00  7.116715917538E+00  4.729033305978E+00
    45    51     8    4.914206847200E-02  2.335875179388E+00  4.740186448713E+00
    52    52     8    4.662480463690E+00  4.662480463690E+00  7.145638741195E+00
    53    53     8    7.124768583111E+00  7.124768583111E+00  7.059908948551E+00
    54    54     8    2.227528646820E+00  2.227528646820E+00  6.865134225868E+00

 SYMMETRY CHANGED DURING OLD RUN :  INFORMATION ON SPACE GROUP LOST 
 NUMBER OF SYMMETRY OPERATORS         :    2
 *******************************************************************************
 LATTICE PARAMETERS (ANGSTROMS AND DEGREES) - BOHR = 0.5291772083 ANGSTROM
 PRIMITIVE CELL - CENTRING CODE 1/0 VOLUME=   689.754279 - DENSITY  3.291 g/cm^3
         A              B              C           ALPHA      BETA       GAMMA 
     9.94880343     9.94880343     9.88645441    60.010050  60.010050  59.567880
 *******************************************************************************
 ATOMS IN THE ASYMMETRIC UNIT   36 - ATOMS IN THE UNIT CELL:   54
     ATOM                 X/A                 Y/B                 Z/C    
 *******************************************************************************
      1 T  20 CA   -2.022539987494E-03 -2.022539987494E-03  1.884812576601E-03
      2 T  20 CA   -1.854760059121E-03 -1.854760059121E-03  3.364642994838E-01
      3 T  20 CA   -2.593622870322E-03 -2.593622870322E-03 -3.334657378552E-01
      4 T  20 CA   -2.477518517977E-03  3.399098001706E-01 -3.045124442676E-03
      5 T  20 CA   -4.147082455980E-03  3.394561478623E-01  3.368400423408E-01
      6 T  20 CA   -7.264308871159E-03  3.426714343891E-01 -3.359387252805E-01
      7 T  20 CA   -1.221123487598E-04 -3.355626694213E-01 -5.211205384609E-04
      8 T  12 MG   -6.820481040580E-03 -3.243072685587E-01  3.402451710310E-01
      9 T  12 MG   -9.356693558366E-03 -3.266093415908E-01 -3.383899532263E-01
     10 F  20 CA    3.399098001706E-01 -2.477518517977E-03 -3.045124442676E-03
     11 F  20 CA    3.394561478623E-01 -4.147082455980E-03  3.368400423408E-01
     12 F  20 CA    3.426714343891E-01 -7.264308871159E-03 -3.359387252805E-01
     13 T  12 MG    3.321638137420E-01  3.321638137420E-01 -1.131221036163E-03
     14 T  20 CA    3.336845678875E-01  3.336845678875E-01  3.302738691575E-01
     15 T  20 CA    3.328511093090E-01  3.328511093090E-01 -3.305509177265E-01
     16 T  20 CA    3.380919970678E-01 -3.384870140483E-01 -5.826587029016E-03
     17 T  20 CA    3.335948002615E-01 -3.344844835988E-01  3.355542375899E-01
     18 T  12 MG    3.248137886426E-01 -3.558717850270E-01 -3.155096433776E-01
     19 F  20 CA   -3.355626694213E-01 -1.221123487598E-04 -5.211205384609E-04
     20 F  12 MG   -3.243072685587E-01 -6.820481040580E-03  3.402451710310E-01
     21 F  12 MG   -3.266093415908E-01 -9.356693558366E-03 -3.383899532263E-01
     22 F  20 CA   -3.384870140483E-01  3.380919970678E-01 -5.826587029016E-03
     23 F  20 CA   -3.344844835988E-01  3.335948002615E-01  3.355542375899E-01
     24 F  12 MG   -3.558717850270E-01  3.248137886426E-01 -3.155096433776E-01
     25 T  12 MG   -3.280117556976E-01 -3.280117556976E-01 -1.527699167021E-02
     26 T  20 CA   -3.326761518514E-01 -3.326761518514E-01  3.405898912762E-01
     27 T  12 MG   -3.143623052565E-01 -3.143623052565E-01 -3.552626760014E-01
     28 T   8 O    -1.645240351730E-01 -1.645240351730E-01  1.795440211452E-01
     29 T   8 O    -1.662749359632E-01 -1.662749359632E-01 -4.969001892254E-01
     30 T   8 O    -1.727703019311E-01 -1.727703019311E-01 -1.772838430755E-01
     31 T   8 O    -1.737319078478E-01  1.600004191066E-01  1.734425185446E-01
     32 T   8 O    -1.821641144994E-01  1.673548233461E-01 -4.851876851006E-01
     33 T   8 O    -1.767998020768E-01  1.754467633521E-01 -1.753868562833E-01
     34 T   8 O    -1.732164351959E-01 -4.939102854074E-01  1.615079754222E-01
     35 T   8 O    -1.611734004254E-01 -4.749170101188E-01  4.953668903540E-01
     36 T   8 O    -1.733864362733E-01 -4.768149312313E-01 -1.757092613053E-01
     37 F   8 O     1.600004191066E-01 -1.737319078478E-01  1.734425185446E-01
     38 F   8 O     1.673548233461E-01 -1.821641144994E-01 -4.851876851006E-01
     39 F   8 O     1.754467633521E-01 -1.767998020768E-01 -1.753868562833E-01
     40 T   8 O     1.718304007399E-01  1.718304007399E-01  1.620293509339E-01
     41 T   8 O     1.665227421700E-01  1.665227421700E-01 -4.995117236878E-01
     42 T   8 O     1.647534471500E-01  1.647534471500E-01 -1.657529747895E-01
     43 T   8 O     1.699118385118E-01  4.956372856418E-01  1.634983731749E-01
     44 T   8 O     1.521630068578E-01 -4.846965453647E-01 -4.982315231647E-01
     45 T   8 O     1.719117192549E-01  4.991081995752E-01 -1.659260794891E-01
     46 F   8 O    -4.939102854074E-01 -1.732164351959E-01  1.615079754222E-01
     47 F   8 O    -4.749170101188E-01 -1.611734004254E-01  4.953668903540E-01
     48 F   8 O    -4.768149312313E-01 -1.733864362733E-01 -1.757092613053E-01
     49 F   8 O     4.956372856418E-01  1.699118385118E-01  1.634983731749E-01
     50 F   8 O    -4.846965453647E-01  1.521630068578E-01 -4.982315231647E-01
     51 F   8 O     4.991081995752E-01  1.719117192549E-01 -1.659260794891E-01
     52 T   8 O    -4.948395717706E-01 -4.948395717706E-01  1.602832425936E-01
     53 T   8 O     4.985660079261E-01  4.985660079261E-01 -4.808824804874E-01
     54 T   8 O     4.858074950690E-01  4.858074950690E-01 -1.686160300502E-01

 T = ATOM BELONGING TO THE ASYMMETRIC UNIT
 *******************************************************************************
 * GEOMETRY EDITING - INPUT COORDINATES ARE GIVEN IN ANGSTROM         
 *******************************************************************************

 GEOMETRY NOW FULLY CONSISTENT WITH THE GROUP

 GCALCO - MAX INDICES DIRECT LATTICE VECTOR    14    14    15
 NO.OF VECTORS CREATED 6999 STARS 1817 RMAX   198.56899 BOHR

 GEOMETRY FOR WAVE FUNCTION - DIMENSIONALITY OF THE SYSTEM    3
 (NON PERIODIC DIRECTION: LATTICE PARAMETER FORMALLY SET TO 500)
 *******************************************************************************
 LATTICE PARAMETERS (ANGSTROMS AND DEGREES) - BOHR = 0.5291772083 ANGSTROM
 PRIMITIVE CELL - CENTRING CODE 1/0 VOLUME=   689.754279 - DENSITY  3.291 g/cm^3
         A              B              C           ALPHA      BETA       GAMMA 
     9.94880343     9.94880343     9.88645441    60.010050  60.010050  59.567880
 *******************************************************************************
 ATOMS IN THE ASYMMETRIC UNIT   36 - ATOMS IN THE UNIT CELL:   54
     ATOM                 X/A                 Y/B                 Z/C    
 *******************************************************************************
      1 T  20 CA   -2.022539987494E-03 -2.022539987494E-03  1.884812576601E-03
      2 T  20 CA   -1.854760059121E-03 -1.854760059121E-03  3.364642994838E-01
      3 T  20 CA   -2.593622870322E-03 -2.593622870322E-03 -3.334657378552E-01
      4 T  20 CA   -2.477518517977E-03  3.399098001706E-01 -3.045124442676E-03
      5 T  20 CA   -4.147082455980E-03  3.394561478623E-01  3.368400423408E-01
      6 T  20 CA   -7.264308871159E-03  3.426714343891E-01 -3.359387252805E-01
      7 T  20 CA   -1.221123487598E-04 -3.355626694213E-01 -5.211205384609E-04
      8 T  12 MG   -6.820481040580E-03 -3.243072685587E-01  3.402451710310E-01
      9 T  12 MG   -9.356693558366E-03 -3.266093415908E-01 -3.383899532263E-01
     10 F  20 CA    3.399098001706E-01 -2.477518517977E-03 -3.045124442676E-03
     11 F  20 CA    3.394561478623E-01 -4.147082455980E-03  3.368400423408E-01
     12 F  20 CA    3.426714343891E-01 -7.264308871159E-03 -3.359387252805E-01
     13 T  12 MG    3.321638137420E-01  3.321638137420E-01 -1.131221036163E-03
     14 T  20 CA    3.336845678875E-01  3.336845678875E-01  3.302738691575E-01
     15 T  20 CA    3.328511093090E-01  3.328511093090E-01 -3.305509177265E-01
     16 T  20 CA    3.380919970678E-01 -3.384870140483E-01 -5.826587029016E-03
     17 T  20 CA    3.335948002615E-01 -3.344844835988E-01  3.355542375899E-01
     18 T  12 MG    3.248137886426E-01 -3.558717850270E-01 -3.155096433776E-01
     19 F  20 CA   -3.355626694213E-01 -1.221123487598E-04 -5.211205384610E-04
     20 F  12 MG   -3.243072685587E-01 -6.820481040580E-03  3.402451710310E-01
     21 F  12 MG   -3.266093415908E-01 -9.356693558366E-03 -3.383899532263E-01
     22 F  20 CA   -3.384870140483E-01  3.380919970678E-01 -5.826587029016E-03
     23 F  20 CA   -3.344844835988E-01  3.335948002615E-01  3.355542375899E-01
     24 F  12 MG   -3.558717850270E-01  3.248137886426E-01 -3.155096433776E-01
     25 T  12 MG   -3.280117556976E-01 -3.280117556976E-01 -1.527699167021E-02
     26 T  20 CA   -3.326761518514E-01 -3.326761518514E-01  3.405898912762E-01
     27 T  12 MG   -3.143623052565E-01 -3.143623052565E-01 -3.552626760014E-01
     28 T   8 O    -1.645240351730E-01 -1.645240351730E-01  1.795440211452E-01
     29 T   8 O    -1.662749359632E-01 -1.662749359632E-01 -4.969001892254E-01
     30 T   8 O    -1.727703019311E-01 -1.727703019311E-01 -1.772838430755E-01
     31 T   8 O    -1.737319078478E-01  1.600004191066E-01  1.734425185446E-01
     32 T   8 O    -1.821641144994E-01  1.673548233461E-01 -4.851876851006E-01
     33 T   8 O    -1.767998020768E-01  1.754467633521E-01 -1.753868562833E-01
     34 T   8 O    -1.732164351959E-01 -4.939102854074E-01  1.615079754222E-01
     35 T   8 O    -1.611734004254E-01 -4.749170101188E-01  4.953668903540E-01
     36 T   8 O    -1.733864362733E-01 -4.768149312313E-01 -1.757092613053E-01
     37 F   8 O     1.600004191066E-01 -1.737319078478E-01  1.734425185446E-01
     38 F   8 O     1.673548233461E-01 -1.821641144994E-01 -4.851876851006E-01
     39 F   8 O     1.754467633521E-01 -1.767998020768E-01 -1.753868562833E-01
     40 T   8 O     1.718304007399E-01  1.718304007399E-01  1.620293509339E-01
     41 T   8 O     1.665227421700E-01  1.665227421700E-01 -4.995117236878E-01
     42 T   8 O     1.647534471500E-01  1.647534471500E-01 -1.657529747895E-01
     43 T   8 O     1.699118385118E-01  4.956372856418E-01  1.634983731749E-01
     44 T   8 O     1.521630068578E-01 -4.846965453647E-01 -4.982315231647E-01
     45 T   8 O     1.719117192549E-01  4.991081995752E-01 -1.659260794891E-01
     46 F   8 O    -4.939102854074E-01 -1.732164351959E-01  1.615079754222E-01
     47 F   8 O    -4.749170101188E-01 -1.611734004254E-01  4.953668903540E-01
     48 F   8 O    -4.768149312313E-01 -1.733864362733E-01 -1.757092613053E-01
     49 F   8 O     4.956372856418E-01  1.699118385118E-01  1.634983731749E-01
     50 F   8 O    -4.846965453647E-01  1.521630068578E-01 -4.982315231647E-01
     51 F   8 O     4.991081995752E-01  1.719117192549E-01 -1.659260794891E-01
     52 T   8 O    -4.948395717706E-01 -4.948395717706E-01  1.602832425936E-01
     53 T   8 O     4.985660079261E-01  4.985660079261E-01 -4.808824804874E-01
     54 T   8 O     4.858074950690E-01  4.858074950690E-01 -1.686160300502E-01

 T = ATOM BELONGING TO THE ASYMMETRIC UNIT

 ****    2 SYMMOPS - TRANSLATORS IN FRACTIONAL UNITS
 **** MATRICES AND TRANSLATORS IN THE CRYSTALLOGRAPHIC REFERENCE FRAME
   V INV                    ROTATION MATRICES                   TRANSLATORS
   1   1  1.00  0.00  0.00  0.00  1.00  0.00  0.00  0.00  1.00  0.00  0.00  0.00
   2   2 -0.00  1.00 -0.00  1.00 -0.00 -0.00  0.00  0.00  1.00  0.00  0.00  0.00

 DIRECT LATTICE VECTORS CARTESIAN COMPONENTS (ANGSTROM)
          X                    Y                    Z
   0.113612883304E-01   0.700022959363E+01   0.706932431916E+01
   0.700022959363E+01   0.113612883304E-01   0.706932431916E+01
   0.699076330787E+01   0.699076330787E+01   0.209188460532E-01


 CARTESIAN COORDINATES - PRIMITIVE CELL
 *******************************************************************************
 *      ATOM          X(ANGSTROM)         Y(ANGSTROM)         Z(ANGSTROM)
 *******************************************************************************
    1    20 CA   -1.004944332000E-03 -1.004944332000E-03 -2.855655413600E-02
    2    20 CA    2.339137460521E+00  2.339137460521E+00 -1.918535590100E-02
    3    20 CA   -2.349365467099E+00 -2.349365467099E+00 -4.364604089800E-02
    4    20 CA    2.358130750295E+00 -3.476912942400E-02  2.385354534267E+00
    5    20 CA    4.730992864423E+00  2.329595138453E+00  2.377454835502E+00
    6    20 CA    5.022806961100E-02 -2.395426755352E+00  2.364074298766E+00
    7    20 CA   -2.352660146693E+00 -8.310269057000E-03 -2.373075492579E+00
    8    12 MG    1.082706290780E-01  2.327143975715E+00 -2.333731916638E+00
    9    12 MG   -4.652050751419E+00 -2.434813774813E+00 -2.382131590029E+00
   10    20 CA   -3.476912942400E-02  2.358130750295E+00  2.385354534267E+00
   11    20 CA    2.329595138453E+00  4.730992864423E+00  2.377454835502E+00
   12    20 CA   -2.395426755352E+00  5.022806961100E-02  2.364074298766E+00
   13    12 MG    2.321088669238E+00  2.321088669238E+00  4.696323789024E+00
   14    20 CA    4.648526119706E+00  4.648526119706E+00  4.724757809616E+00
   15    20 CA    2.301257605600E-02  2.301257605600E-02  4.699150139634E+00
   16    20 CA   -2.406377942952E+00  2.322143663868E+00 -2.914388624000E-03
   17    20 CA    8.102137956999E-03  4.677220270355E+00  7.299473859990E-04
   18    12 MG   -4.693147136181E+00  6.407469551300E-02 -2.261591468030E-01
   19    20 CA   -8.310269057000E-03 -2.352660146693E+00 -2.373075492579E+00
   20    12 MG    2.327143975715E+00  1.082706290780E-01 -2.333731916638E+00
   21    12 MG   -2.434813774813E+00 -4.652050751419E+00 -2.382131590029E+00
   22    20 CA    2.322143663868E+00 -2.406377942952E+00 -2.914388624000E-03
   23    20 CA    4.677220270355E+00  8.102137956999E-03  7.299473859986E-04
   24    12 MG    6.407469551300E-02 -4.693147136181E+00 -2.261591468030E-01
   25    12 MG   -2.406682068248E+00 -2.406682068248E+00 -4.637962540084E+00
   26    20 CA    4.839424199800E-02  4.839424199800E-02 -4.696466473873E+00
   27    12 MG   -4.687737153215E+00 -4.687737153215E+00 -4.452089864382E+00
   28     8 O     1.015745302870E-01  1.015745302870E-01 -2.322391672131E+00
   29     8 O     2.351199872461E+00  2.351199872461E+00 -2.340378629452E+00
   30     8 O    -2.450744058944E+00 -2.450744058944E+00 -2.446447167561E+00
   31     8 O     2.330561445192E+00 -1.849837113000E-03 -9.344412995200E-02
   32     8 O     4.768383609434E+00  2.325641782624E+00 -9.392240253800E-02
   33     8 O     7.095180800017E-05 -2.461733904969E+00 -1.323396020800E-02
   34     8 O     4.669840263769E+00 -7.774095608300E-02  2.356567729712E+00
   35     8 O     7.136863028425E+00  2.340707492902E+00  2.582957414434E+00
   36     8 O     2.432103851259E+00 -2.436142662704E+00  2.469164344521E+00
   37     8 O    -1.849837113000E-03  2.330561445192E+00 -9.344412995200E-02
   38     8 O     2.325641782624E+00  4.768383609434E+00 -9.392240253800E-02
   39     8 O    -2.461733904969E+00  7.095180800017E-05 -1.323396020800E-02
   40     8 O     2.337513312378E+00  2.337513312378E+00  2.432839128491E+00
   41     8 O     4.666384418701E+00  4.666384418701E+00  2.364876179035E+00
   42     8 O    -3.556046520000E-03 -3.556046520000E-03  2.325923740244E+00
   43     8 O     4.614483640132E+00  2.338031386455E+00  4.708402806273E+00
   44     8 O     7.116715917538E+00  4.578775151694E+00  4.729033305978E+00
   45     8 O     2.335875179388E+00  4.914206847200E-02  4.740186448713E+00
   46     8 O    -7.774095608300E-02  4.669840263769E+00  2.356567729712E+00
   47     8 O     2.340707492902E+00  7.136863028425E+00  2.582957414434E+00
   48     8 O    -2.436142662704E+00  2.432103851259E+00  2.469164344521E+00
   49     8 O     2.338031386455E+00  4.614483640132E+00  4.708402806273E+00
   50     8 O     4.578775151694E+00  7.116715917538E+00  4.729033305978E+00
   51     8 O     4.914206847200E-02  2.335875179388E+00  4.740186448713E+00
   52     8 O     4.662480463690E+00  4.662480463690E+00  7.145638741195E+00
   53     8 O     7.124768583111E+00  7.124768583111E+00  7.059908948551E+00
   54     8 O     2.227528646820E+00  2.227528646820E+00  6.865134225868E+00
 WARNING **** CRYSTA **** TESTGEOM  DIRECTIVE - GEOMETRY EDITING COMPLETE
 TTTTTTTTTTTTTTTTTTTTTTTTTTTTTT END         TELAPSE        0.01 TCPU        0.01
 EEEEEEEEEE TERMINATION  DATE 10 03 2023 TIME 10:32:03.2
Fri 10 Mar 2023 10:32:03 GMT
Contents of temporary directory:
total 16
-rw-r--r--  1 brunocamino  admin  4271 10 Mar 10:32 fort.34
SCF abnormal end - no wf written in fort.9
geometry input file fort.34 saved as /Users/brunocamino/Desktop/Imperial/cmsg_icl/solid-solutions/./data/crystal/testgeom_opt/CaMgO_testgeom_3185.gui
temporary directory /Users/brunocamino/crystal/tmp removed
