date Fri 10 Mar 2023 10:30:26 GMT
hostname MacBook-Pro-8
system Darwin MacBook-Pro-8 21.6.0 Darwin Kernel Version 21.6.0: Mon Aug 22 20:20:05 PDT 2022; root:xnu-8020.140.49~2/RELEASE_ARM64_T8101 arm64
user brunocamino
output data in /Users/brunocamino/Desktop/Imperial/cmsg_icl/solid-solutions/./data/crystal/testgeom_opt/CaMgO_testgeom_1972.out
crystal executable in /Users/brunocamino/crystal
input data in /Users/brunocamino/Desktop/Imperial/cmsg_icl/solid-solutions/./data/crystal/testgeom_opt/CaMgO_testgeom_1972.d12
temporary directory /Users/brunocamino/crystal/tmp
external geometry input from /Users/brunocamino/Desktop/Imperial/cmsg_icl/solid-solutions/./data/crystal/testgeom_opt/CaMgO_testgeom_1972.gui
external geometry input saved in /Users/brunocamino/Desktop/Imperial/cmsg_icl/solid-solutions/./data/crystal/testgeom_opt/CaMgO_testgeom_1972_inp.gui
Bulk 
EXTERNAL
EXTPRT
TESTGEOM
END

         
 *******************************************************************************
 *                                                                             *
 *                               CRYSTAL17                                     *
 *                      public : 1.0.1 - Feb 1st, 2017                         *
 *                       HTTP://WWW.CRYSTAL.UNITO.IT                           *
 *                                                                             *
 *                              MAIN AUTHORS                                   *
 *                                                                             *
 *  R. DOVESI(1,11), V.R. SAUNDERS(2), C. ROETTI(1,11), R. ORLANDO(1,11),      *
 *  C.M. ZICOVICH-WILSON(1,3), F. PASCALE(4), B. CIVALLERI(1,11),              *
 *  K. DOLL(5), N.M. HARRISON(2,6), I.J. BUSH(7), Ph. D'ARCO(8),               *
 *  M. LLUNELL(9), M. CAUSA'(10), Y. NOEL(8), L. MASCHIO(1,11), A. ERBA(1,11)  *
 *  M. RE'RAT(14), S. CASASSA(1,11)                                            *
 *                                                                             *
 *        CONTRIBUTIONS TO THE CODE HAVE ALSO BEEN GIVEN BY                    *
 *                                                                             *
 *  M. FERRABONE(1,11), M. DE LA PIERRE(1,11), M. FERRERO(1,11),               *
 *  J. BAIMA(1,11), E. ALBANESE(1,11), M.F. PEINTINGER(12), R. BAST(13),       *
 *  B. KIRTMAN(15), V. LACIVITA(1,11), R. DEMICHELIS(1,16)                     *
 *  G. BRANDEBURG(17), S. SALUSTRO(1,11), G. SANSONE(1,11)                     *
 *  M.T. RUGGIERO(18)                                                          *
 *                                                                             *
 * (1) THEORETICAL CHEMISTRY GROUP - UNIVERSITA' DI TORINO - TORINO (ITALY)    *

 * (2) COMPUTATIONAL SCIENCE & ENGINEERING DEPARTMENT - STFC DARESBURY (UK)    *
 * (3) UNIVERSIDAD AUTONOMA DEL ESTADO DE MORELOS - CUERNAVACA (MEXICO)        *
 * (4) UNIVERSITE' DE LORRAINE - NANCY (FRANCE)                                *
 * (5) UNIVERSITAET STUTTGART- STUTTGART (GERMANY)                             *
 * (6) IMPERIAL COLLEGE - LONDON (UK)                                          *
 * (7) OXFORD E-RESEARCH CENTRE - OXFORD (UK)                                  *
 * (8) UPMC - SORBONNE UNIVERSITES - PARIS (FRANCE)                            *
 * (9) UNIVERSIDAD DE BARCELONA - BARCELONA (SPAIN)                            *
 *(10) UNIVERSITA' DI NAPOLI "FEDERICO II" - NAPOLI (ITALY)                    *
 *(11) NIS - NANOSTRUCTURED INTERFACES AND SURFACES - TORINO (ITALY)           *
 *(12) MPI FUER CHEMISCHE ENERGIEKONVERSION - MUELHEIM AN DER RUHR (GERMANY)   *
 *(13) UNIVERSITY OF TROMSO - TROMSO (NORWAY)                                  *
 *(14) UNIVERSITE' DE PAU ET DES PAYS DE L'ADOUR - PAU (FRANCE)                *
 *(15) UNIVERSITY OF CALIFORNIA SANTA BARBARA - SANTA BARBARA (USA)            *
 *(16) CURTIN UNIVERSITY - PERTH (AUSTRALIA)                                   *
 *(17) UNIVERSITY COLLEGE LONDON - LONDON (UK)                                 *
 *(18) CAMBRIDGE UNIVERSITY - CAMBRIDGE (UK)                                   *
 *                                                                             *
 *******************************************************************************
 EEEEEEEEEE STARTING  DATE 10 03 2023 TIME 10:30:26.0
 Bulk                                                                            

 GEOMETRY INPUT FROM EXTERNAL FILE (FORTRAN UNIT 34)
 3D - CRYSTAL 

 *******************************************************************************
 LATTICE PARAMETERS  (ANGSTROMS AND DEGREES) - PRIMITIVE CELL
       A          B          C        ALPHA      BETA     GAMMA        VOLUME
    9.93136    9.92149    9.90902    60.05579  60.05458  59.84605    690.167515
 INFORMATION **** CHKGRP **** SPGR WITH NO INVERSION

 NUMBER OF IRREDUCIBLE ATOMS IN THE CELL:   54

 CARTESIAN COORDINATES (ANGSTROM) - IRREDUCIBLE ATOMS AND SYMMETRY RELATED

 AT.IRR.  AT  AT.N.          X                   Y                   Z
     1     1    20    2.149522932400E-02 -1.943486191500E-02 -3.593464276000E-03
     2     2    20    2.343863401119E+00  2.339754383939E+00 -4.276291514700E-02
     3     3    20   -2.361258423429E+00 -2.315916668456E+00 -5.457850349000E-03
     4     4    20    2.327195371234E+00 -3.060376126000E-02  2.390370958367E+00
     5     5    20    4.680485641061E+00  2.342776304534E+00  2.364305319516E+00
     6     6    20    4.196618669300E-02 -2.345366462779E+00  2.399049509235E+00
     7     7    20   -2.364668341290E+00  1.158192760500E-02 -2.349016708952E+00
     8     8    20    3.674286324600E-02  2.357863253537E+00 -2.378993817715E+00
     9     9    12   -4.675215275624E+00 -2.299831917578E+00 -2.322443333445E+00
    10    10    20    6.157523904000E-03  2.318796130391E+00  2.369759235726E+00
    11    11    20    2.325568661749E+00  4.726361088953E+00  2.392543411417E+00
    12    12    20   -2.403747727536E+00 -3.134637174000E-03  2.381500802021E+00
    13    13    12    2.338998430689E+00  2.332969771312E+00  4.746059819101E+00
    14    14    12    4.521443051723E+00  4.692809282945E+00  4.731070008305E+00
    15    15    12    1.126430378080E-01 -6.459236500100E-02  4.685992035531E+00
    16    16    20   -2.415711355506E+00  2.352976147942E+00 -8.477334839000E-03
    17    17    20    1.499729615600E-02  4.731137860554E+00 -3.881720651800E-02
    18    18    12   -4.734371218641E+00  1.169516268400E-02 -1.114661598280E-01
    19    19    20    4.939306883100E-02 -2.330352084893E+00 -2.359641690303E+00
    20    20    12    2.317909982589E+00 -1.010665221400E-02 -2.311136852566E+00
    21    21    20   -2.371201648951E+00 -4.708596716470E+00 -2.351419498059E+00
    22    22    12    2.367981856988E+00 -2.331285746100E+00 -1.064655922140E-01
    23    23    20    4.696546022195E+00 -3.730149172800E-02 -3.192771430000E-02
    24    24    20    8.534368080000E-02 -4.706453961889E+00 -7.815658918000E-03
    25    25    20   -2.380441024789E+00 -2.351077479020E+00 -4.701756687276E+00
    26    26    12    9.116426087000E-02  3.246580264400E-02 -4.698360518866E+00
    27    27    12   -4.693806327388E+00 -4.694283274328E+00 -4.613114918115E+00
    28    28     8    8.925180113600E-02  9.239806581000E-03 -2.369471423710E+00
    29    29     8    2.334247774785E+00  2.331421223048E+00 -2.412961985291E+00
    30    30     8   -2.412738786782E+00 -2.331587804263E+00 -2.350064286550E+00
    31    31     8    2.335623203581E+00 -8.389032655800E-02 -9.082426030200E-02
    32    32     8    4.677597469605E+00  2.330596209889E+00 -7.203983253000E-03
    33    33     8    8.496362357100E-02 -2.341147967338E+00 -3.063661484000E-03
    34    34     8    4.744539574095E+00  5.817513356000E-03  2.346244677922E+00
    35    35     8    7.106757569440E+00  2.230106004643E+00  2.356659811992E+00
    36    36     8    2.330685386931E+00 -2.432998535211E+00  2.389266703358E+00
    37    37     8    3.772782085000E-03  2.348258923782E+00 -4.255220089000E-03
    38    38     8    2.339029069453E+00  4.765493823993E+00 -8.330180362100E-02
    39    39     8   -2.427832095491E+00  1.437911938000E-03 -1.350011988100E-02
    40    40     8    2.338748772286E+00  2.339634038288E+00  2.391413431290E+00
    41    41     8    4.669577617947E+00  4.663795461492E+00  2.431328864864E+00
    42    42     8   -2.734867613000E-03 -1.011339440000E-04  2.384497948951E+00
    43    43     8    4.553103643693E+00  2.438378977843E+00  4.683044217516E+00
    44    44     8    7.104068608575E+00  4.793678837811E+00  4.701589752157E+00
    45    45     8    2.254086104343E+00 -9.879854637000E-03  4.765563456408E+00
    46    46     8    1.084407582000E-03  4.757511020397E+00  2.355113069557E+00
    47    47     8    2.217021567632E+00  7.104452489690E+00  2.411788116526E+00
    48    48     8   -2.421682403775E+00  2.326251488453E+00  2.357863126059E+00
    49    49     8    2.404108211788E+00  4.690980289729E+00  4.777778445159E+00
    50    50     8    4.627120590589E+00  6.887097731712E+00  4.690096839140E+00
    51    51     8    1.072953712340E-01  2.239130645768E+00  4.685616525757E+00
    52    52     8    4.542904916969E+00  4.668688413378E+00  6.921443945476E+00
    53    53     8    7.138366199991E+00  7.012824919493E+00  7.013457964547E+00
    54    54     8    2.334730881312E+00  2.323128677951E+00  6.953518165069E+00

 SYMMETRY CHANGED DURING OLD RUN :  INFORMATION ON SPACE GROUP LOST 
 NUMBER OF SYMMETRY OPERATORS         :    1
 *******************************************************************************
 LATTICE PARAMETERS (ANGSTROMS AND DEGREES) - BOHR = 0.5291772083 ANGSTROM
 PRIMITIVE CELL - CENTRING CODE 1/0 VOLUME=   690.167515 - DENSITY  3.289 g/cm^3
         A              B              C           ALPHA      BETA       GAMMA 
     9.93136319     9.92148926     9.90902044    60.055787  60.054576  59.846052
 *******************************************************************************
 ATOMS IN THE ASYMMETRIC UNIT   54 - ATOMS IN THE UNIT CELL:   54
     ATOM                 X/A                 Y/B                 Z/C    
 *******************************************************************************
      1 T  20 CA   -3.176616282038E-03  2.667842417341E-03  4.035867032451E-04
      2 T  20 CA   -3.262473901206E-03 -2.829596257803E-03  3.372688849187E-01
      3 T  20 CA    2.779884381690E-03 -3.546339592834E-03 -3.333818812137E-01
      4 T  20 CA    1.561252928337E-03  3.384354188869E-01 -5.997649872555E-03
      5 T  20 CA    1.212778385554E-03  3.350645488740E-01  3.331557631987E-01
      6 T  20 CA    2.350534396234E-06  3.412416408608E-01 -3.348747308247E-01
      7 T  20 CA    2.692703058499E-03 -3.368102113090E-01 -9.745119594285E-04
      8 T  20 CA   -3.302101670372E-03 -3.350869699668E-01  3.399591347987E-01
      9 T  12 MG    4.450807265956E-03 -3.347780661715E-01 -3.326923303126E-01
     10 T  20 CA    3.334473939855E-01  3.370668728184E-03 -2.630803654045E-03
     11 T  20 CA    3.414272943185E-01 -1.386425901043E-03  3.330695928773E-01
     12 T  20 CA    3.404912273964E-01 -1.996224822434E-03 -3.411372896300E-01
     13 T  12 MG    3.368028301443E-01  3.380090874486E-01 -4.030885567598E-03
     14 T  12 MG    3.484660545592E-01  3.241934718079E-01  3.211729315581E-01
     15 T  12 MG    3.202479212521E-01  3.460441243853E-01 -3.297239888091E-01
     16 T  20 CA    3.397593672561E-01 -3.412176157833E-01 -3.999250886705E-03
     17 T  20 CA    3.339240451037E-01 -3.397057306263E-01  3.413258415883E-01
     18 T  12 MG    3.307599979111E-01 -3.468486847551E-01 -3.292153831757E-01
     19 T  20 CA   -3.375176824676E-01  2.141642026557E-03  5.052751366789E-03
     20 T  12 MG   -3.303124265099E-01  1.818598432194E-03  3.290623585993E-01
     21 T  20 CA   -3.339812688893E-01 -2.156449409122E-04 -3.379837591619E-01
     22 T  12 MG   -3.429705950493E-01  3.280819441235E-01  1.031128789981E-02
     23 T  20 CA   -3.400756497076E-01  3.357752400725E-01  3.348833155207E-01
     24 T  20 CA   -3.426350369857E-01  3.417898733932E-01 -3.290865012626E-01
     25 T  20 CA   -3.319908525510E-01 -3.365228628231E-01 -3.369103520769E-03
     26 T  12 MG   -3.379637243290E-01 -3.300748672236E-01  3.428608736793E-01
     27 T  12 MG   -3.278918328376E-01 -3.280047464546E-01 -3.419688398823E-01
     28 T   8 O    -1.740388553222E-01 -1.628629667697E-01  1.754916801793E-01
     29 T   8 O    -1.715523817490E-01 -1.715489872990E-01 -4.954991582515E-01
     30 T   8 O    -1.612282913213E-01 -1.729102530137E-01 -1.714815401268E-01
     31 T   8 O    -1.791106884416E-01  1.663193677445E-01  1.672070708608E-01
     32 T   8 O    -1.679249087044E-01  1.670071940059E-01 -4.993132922402E-01
     33 T   8 O    -1.734131705224E-01  1.731120816114E-01 -1.607225112893E-01
     34 T   8 O    -1.714746188880E-01 -4.946827933777E-01  1.723056305229E-01
     35 T   8 O    -1.805120647165E-01 -4.841688902516E-01  4.988672766904E-01
     36 T   8 O    -1.702711365038E-01 -4.897553880381E-01 -1.770446956620E-01
     37 T   8 O     1.670686637605E-01 -1.678041318837E-01  1.680847801401E-01
     38 T   8 O     1.673740330318E-01 -1.793653479774E-01 -4.871540646918E-01
     39 T   8 O     1.723931865242E-01 -1.744354091432E-01 -1.722542660845E-01
     40 T   8 O     1.700200994660E-01  1.699935326813E-01  1.638337830179E-01
     41 T   8 O     1.724481486551E-01  1.732293314148E-01  4.931817012824E-01
     42 T   8 O     1.695849253444E-01  1.694573202722E-01 -1.697318866952E-01
     43 T   8 O     1.818531245113E-01  4.841048089552E-01  1.660279040193E-01
     44 T   8 O     1.692771141408E-01  4.993155509220E-01 -4.851686463440E-01
     45 T   8 O     1.769936945633E-01 -4.992825951418E-01 -1.786062448001E-01
     46 T   8 O    -4.931333098137E-01 -1.722670218266E-01  1.720139218170E-01
     47 T   8 O    -4.796897470439E-01 -1.776708228049E-01  4.935934835768E-01
     48 T   8 O    -4.936153298870E-01 -1.713810972449E-01 -1.745704141714E-01
     49 T   8 O    -4.972537277228E-01  1.764477120627E-01  1.665705994345E-01
     50 T   8 O     4.946625184721E-01  1.720544705013E-01  4.881594706423E-01
     51 T   8 O     4.850636561269E-01  1.810465788948E-01 -1.657430945657E-01
     52 T   8 O    -4.991811952849E-01  4.832837962478E-01  1.652564765752E-01
     53 T   8 O     4.894898745551E-01 -4.923034791688E-01 -4.887832854581E-01
     54 T   8 O     4.932247394742E-01  4.954573238003E-01 -1.619800913546E-01

 T = ATOM BELONGING TO THE ASYMMETRIC UNIT
 *******************************************************************************
 * GEOMETRY EDITING - INPUT COORDINATES ARE GIVEN IN ANGSTROM         
 *******************************************************************************

 GCALCO - MAX INDICES DIRECT LATTICE VECTOR    14    14    14
 NO.OF VECTORS CREATED 6999 STARS 3500 RMAX   198.52739 BOHR

 GEOMETRY FOR WAVE FUNCTION - DIMENSIONALITY OF THE SYSTEM    3
 (NON PERIODIC DIRECTION: LATTICE PARAMETER FORMALLY SET TO 500)
 *******************************************************************************
 LATTICE PARAMETERS (ANGSTROMS AND DEGREES) - BOHR = 0.5291772083 ANGSTROM
 PRIMITIVE CELL - CENTRING CODE 1/0 VOLUME=   690.167515 - DENSITY  3.289 g/cm^3
         A              B              C           ALPHA      BETA       GAMMA 
     9.93136319     9.92148926     9.90902044    60.055787  60.054576  59.846052
 *******************************************************************************
 ATOMS IN THE ASYMMETRIC UNIT   54 - ATOMS IN THE UNIT CELL:   54
     ATOM                 X/A                 Y/B                 Z/C    
 *******************************************************************************
      1 T  20 CA   -3.176616282038E-03  2.667842417341E-03  4.035867032451E-04
      2 T  20 CA   -3.262473901206E-03 -2.829596257803E-03  3.372688849187E-01
      3 T  20 CA    2.779884381690E-03 -3.546339592834E-03 -3.333818812137E-01
      4 T  20 CA    1.561252928338E-03  3.384354188869E-01 -5.997649872555E-03
      5 T  20 CA    1.212778385555E-03  3.350645488740E-01  3.331557631987E-01
      6 T  20 CA    2.350534396373E-06  3.412416408608E-01 -3.348747308247E-01
      7 T  20 CA    2.692703058499E-03 -3.368102113090E-01 -9.745119594285E-04
      8 T  20 CA   -3.302101670372E-03 -3.350869699668E-01  3.399591347987E-01
      9 T  12 MG    4.450807265956E-03 -3.347780661715E-01 -3.326923303126E-01
     10 T  20 CA    3.334473939855E-01  3.370668728184E-03 -2.630803654045E-03
     11 T  20 CA    3.414272943185E-01 -1.386425901043E-03  3.330695928773E-01
     12 T  20 CA    3.404912273964E-01 -1.996224822434E-03 -3.411372896300E-01
     13 T  12 MG    3.368028301443E-01  3.380090874486E-01 -4.030885567598E-03
     14 T  12 MG    3.484660545592E-01  3.241934718079E-01  3.211729315581E-01
     15 T  12 MG    3.202479212521E-01  3.460441243853E-01 -3.297239888091E-01
     16 T  20 CA    3.397593672561E-01 -3.412176157833E-01 -3.999250886705E-03
     17 T  20 CA    3.339240451037E-01 -3.397057306263E-01  3.413258415883E-01
     18 T  12 MG    3.307599979111E-01 -3.468486847551E-01 -3.292153831757E-01
     19 T  20 CA   -3.375176824676E-01  2.141642026557E-03  5.052751366789E-03
     20 T  12 MG   -3.303124265099E-01  1.818598432194E-03  3.290623585993E-01
     21 T  20 CA   -3.339812688893E-01 -2.156449409121E-04 -3.379837591619E-01
     22 T  12 MG   -3.429705950493E-01  3.280819441235E-01  1.031128789981E-02
     23 T  20 CA   -3.400756497076E-01  3.357752400725E-01  3.348833155207E-01
     24 T  20 CA   -3.426350369857E-01  3.417898733932E-01 -3.290865012626E-01
     25 T  20 CA   -3.319908525510E-01 -3.365228628231E-01 -3.369103520769E-03
     26 T  12 MG   -3.379637243290E-01 -3.300748672236E-01  3.428608736793E-01
     27 T  12 MG   -3.278918328376E-01 -3.280047464546E-01 -3.419688398823E-01
     28 T   8 O    -1.740388553222E-01 -1.628629667697E-01  1.754916801793E-01
     29 T   8 O    -1.715523817490E-01 -1.715489872990E-01 -4.954991582515E-01
     30 T   8 O    -1.612282913213E-01 -1.729102530137E-01 -1.714815401268E-01
     31 T   8 O    -1.791106884416E-01  1.663193677445E-01  1.672070708608E-01
     32 T   8 O    -1.679249087044E-01  1.670071940059E-01 -4.993132922402E-01
     33 T   8 O    -1.734131705224E-01  1.731120816114E-01 -1.607225112893E-01
     34 T   8 O    -1.714746188880E-01 -4.946827933777E-01  1.723056305229E-01
     35 T   8 O    -1.805120647165E-01 -4.841688902516E-01  4.988672766904E-01
     36 T   8 O    -1.702711365038E-01 -4.897553880381E-01 -1.770446956620E-01
     37 T   8 O     1.670686637605E-01 -1.678041318837E-01  1.680847801401E-01
     38 T   8 O     1.673740330318E-01 -1.793653479774E-01 -4.871540646918E-01
     39 T   8 O     1.723931865242E-01 -1.744354091432E-01 -1.722542660845E-01
     40 T   8 O     1.700200994660E-01  1.699935326813E-01  1.638337830179E-01
     41 T   8 O     1.724481486551E-01  1.732293314148E-01  4.931817012824E-01
     42 T   8 O     1.695849253444E-01  1.694573202722E-01 -1.697318866952E-01
     43 T   8 O     1.818531245113E-01  4.841048089552E-01  1.660279040193E-01
     44 T   8 O     1.692771141408E-01  4.993155509220E-01 -4.851686463440E-01
     45 T   8 O     1.769936945633E-01 -4.992825951418E-01 -1.786062448001E-01
     46 T   8 O    -4.931333098137E-01 -1.722670218266E-01  1.720139218170E-01
     47 T   8 O    -4.796897470439E-01 -1.776708228049E-01  4.935934835768E-01
     48 T   8 O    -4.936153298870E-01 -1.713810972449E-01 -1.745704141714E-01
     49 T   8 O    -4.972537277228E-01  1.764477120627E-01  1.665705994345E-01
     50 T   8 O     4.946625184721E-01  1.720544705013E-01  4.881594706423E-01
     51 T   8 O     4.850636561269E-01  1.810465788948E-01 -1.657430945657E-01
     52 T   8 O    -4.991811952849E-01  4.832837962478E-01  1.652564765752E-01
     53 T   8 O     4.894898745551E-01 -4.923034791688E-01 -4.887832854581E-01
     54 T   8 O     4.932247394742E-01  4.954573238003E-01 -1.619800913546E-01

 T = ATOM BELONGING TO THE ASYMMETRIC UNIT

 ****    1 SYMMOPS - TRANSLATORS IN FRACTIONAL UNITS
 **** MATRICES AND TRANSLATORS IN THE CRYSTALLOGRAPHIC REFERENCE FRAME
   V INV                    ROTATION MATRICES                   TRANSLATORS
   1   1  1.00  0.00  0.00  0.00  1.00  0.00  0.00  0.00  1.00  0.00  0.00  0.00

 DIRECT LATTICE VECTORS CARTESIAN COMPONENTS (ANGSTROM)
          X                    Y                    Z
   0.299463267634E-02   0.700926365702E+01   0.703577918782E+01
   0.700052033095E+01   0.138153845718E-02   0.703055206965E+01
   0.700830086277E+01   0.700516987641E+01   0.251296986672E-03


 CARTESIAN COORDINATES - PRIMITIVE CELL
 *******************************************************************************
 *      ATOM          X(ANGSTROM)         Y(ANGSTROM)         Z(ANGSTROM)
 *******************************************************************************
    1    20 CA    2.149522932400E-02 -1.943486191500E-02 -3.593464276000E-03
    2    20 CA    2.343863401119E+00  2.339754383939E+00 -4.276291514700E-02
    3    20 CA   -2.361258423429E+00 -2.315916668456E+00 -5.457850349000E-03
    4    20 CA    2.327195371234E+00 -3.060376126000E-02  2.390370958367E+00
    5    20 CA    4.680485641061E+00  2.342776304534E+00  2.364305319516E+00
    6    20 CA    4.196618669300E-02 -2.345366462779E+00  2.399049509235E+00
    7    20 CA   -2.364668341290E+00  1.158192760500E-02 -2.349016708952E+00
    8    20 CA    3.674286324600E-02  2.357863253537E+00 -2.378993817715E+00
    9    12 MG   -4.675215275624E+00 -2.299831917578E+00 -2.322443333445E+00
   10    20 CA    6.157523904000E-03  2.318796130391E+00  2.369759235726E+00
   11    20 CA    2.325568661749E+00  4.726361088953E+00  2.392543411417E+00
   12    20 CA   -2.403747727536E+00 -3.134637174000E-03  2.381500802021E+00
   13    12 MG    2.338998430689E+00  2.332969771312E+00  4.746059819101E+00
   14    12 MG    4.521443051723E+00  4.692809282945E+00  4.731070008305E+00
   15    12 MG    1.126430378080E-01 -6.459236500100E-02  4.685992035531E+00
   16    20 CA   -2.415711355506E+00  2.352976147942E+00 -8.477334839000E-03
   17    20 CA    1.499729615600E-02  4.731137860554E+00 -3.881720651800E-02
   18    12 MG   -4.734371218641E+00  1.169516268400E-02 -1.114661598280E-01
   19    20 CA    4.939306883100E-02 -2.330352084893E+00 -2.359641690303E+00
   20    12 MG    2.317909982589E+00 -1.010665221400E-02 -2.311136852566E+00
   21    20 CA   -2.371201648951E+00 -4.708596716470E+00 -2.351419498059E+00
   22    12 MG    2.367981856988E+00 -2.331285746100E+00 -1.064655922140E-01
   23    20 CA    4.696546022195E+00 -3.730149172800E-02 -3.192771430000E-02
   24    20 CA    8.534368080000E-02 -4.706453961889E+00 -7.815658918000E-03
   25    20 CA   -2.380441024789E+00 -2.351077479020E+00 -4.701756687276E+00
   26    12 MG    9.116426087000E-02  3.246580264400E-02 -4.698360518866E+00
   27    12 MG   -4.693806327388E+00 -4.694283274328E+00 -4.613114918115E+00
   28     8 O     8.925180113600E-02  9.239806581000E-03 -2.369471423710E+00
   29     8 O     2.334247774785E+00  2.331421223048E+00 -2.412961985291E+00
   30     8 O    -2.412738786782E+00 -2.331587804263E+00 -2.350064286550E+00
   31     8 O     2.335623203581E+00 -8.389032655800E-02 -9.082426030200E-02
   32     8 O     4.677597469605E+00  2.330596209889E+00 -7.203983253000E-03
   33     8 O     8.496362357100E-02 -2.341147967338E+00 -3.063661484000E-03
   34     8 O     4.744539574095E+00  5.817513356000E-03  2.346244677922E+00
   35     8 O     7.106757569440E+00  2.230106004643E+00  2.356659811992E+00
   36     8 O     2.330685386931E+00 -2.432998535211E+00  2.389266703358E+00
   37     8 O     3.772782085000E-03  2.348258923782E+00 -4.255220089000E-03
   38     8 O     2.339029069453E+00  4.765493823993E+00 -8.330180362100E-02
   39     8 O    -2.427832095491E+00  1.437911938000E-03 -1.350011988100E-02
   40     8 O     2.338748772286E+00  2.339634038288E+00  2.391413431290E+00
   41     8 O     4.669577617947E+00  4.663795461492E+00  2.431328864864E+00
   42     8 O    -2.734867613000E-03 -1.011339440004E-04  2.384497948951E+00
   43     8 O     4.553103643693E+00  2.438378977843E+00  4.683044217516E+00
   44     8 O     7.104068608575E+00  4.793678837811E+00  4.701589752157E+00
   45     8 O     2.254086104343E+00 -9.879854637000E-03  4.765563456408E+00
   46     8 O     1.084407582000E-03  4.757511020397E+00  2.355113069557E+00
   47     8 O     2.217021567632E+00  7.104452489690E+00  2.411788116526E+00
   48     8 O    -2.421682403775E+00  2.326251488453E+00  2.357863126059E+00
   49     8 O     2.404108211788E+00  4.690980289729E+00  4.777778445159E+00
   50     8 O     4.627120590589E+00  6.887097731712E+00  4.690096839140E+00
   51     8 O     1.072953712340E-01  2.239130645768E+00  4.685616525757E+00
   52     8 O     4.542904916969E+00  4.668688413378E+00  6.921443945476E+00
   53     8 O     7.138366199991E+00  7.012824919493E+00  7.013457964547E+00
   54     8 O     2.334730881312E+00  2.323128677951E+00  6.953518165069E+00
 WARNING **** CRYSTA **** TESTGEOM  DIRECTIVE - GEOMETRY EDITING COMPLETE
 TTTTTTTTTTTTTTTTTTTTTTTTTTTTTT END         TELAPSE        0.01 TCPU        0.01
 EEEEEEEEEE TERMINATION  DATE 10 03 2023 TIME 10:30:26.0
Fri 10 Mar 2023 10:30:26 GMT
Contents of temporary directory:
total 8
-rw-r--r--  1 brunocamino  admin  4027 10 Mar 10:30 fort.34
SCF abnormal end - no wf written in fort.9
geometry input file fort.34 saved as /Users/brunocamino/Desktop/Imperial/cmsg_icl/solid-solutions/./data/crystal/testgeom_opt/CaMgO_testgeom_1972.gui
temporary directory /Users/brunocamino/crystal/tmp removed
