date Fri 10 Mar 2023 10:31:19 GMT
hostname MacBook-Pro-8
system Darwin MacBook-Pro-8 21.6.0 Darwin Kernel Version 21.6.0: Mon Aug 22 20:20:05 PDT 2022; root:xnu-8020.140.49~2/RELEASE_ARM64_T8101 arm64
user brunocamino
output data in /Users/brunocamino/Desktop/Imperial/cmsg_icl/solid-solutions/./data/crystal/testgeom_opt/CaMgO_testgeom_2649.out
crystal executable in /Users/brunocamino/crystal
input data in /Users/brunocamino/Desktop/Imperial/cmsg_icl/solid-solutions/./data/crystal/testgeom_opt/CaMgO_testgeom_2649.d12
temporary directory /Users/brunocamino/crystal/tmp
external geometry input from /Users/brunocamino/Desktop/Imperial/cmsg_icl/solid-solutions/./data/crystal/testgeom_opt/CaMgO_testgeom_2649.gui
external geometry input saved in /Users/brunocamino/Desktop/Imperial/cmsg_icl/solid-solutions/./data/crystal/testgeom_opt/CaMgO_testgeom_2649_inp.gui
Bulk 
EXTERNAL
EXTPRT
TESTGEOM
END

         
 *******************************************************************************
 *                                                                             *
 *                               CRYSTAL17                                     *
 *                      public : 1.0.1 - Feb 1st, 2017                         *
 *                       HTTP://WWW.CRYSTAL.UNITO.IT                           *
 *                                                                             *
 *                              MAIN AUTHORS                                   *
 *                                                                             *
 *  R. DOVESI(1,11), V.R. SAUNDERS(2), C. ROETTI(1,11), R. ORLANDO(1,11),      *
 *  C.M. ZICOVICH-WILSON(1,3), F. PASCALE(4), B. CIVALLERI(1,11),              *
 *  K. DOLL(5), N.M. HARRISON(2,6), I.J. BUSH(7), Ph. D'ARCO(8),               *
 *  M. LLUNELL(9), M. CAUSA'(10), Y. NOEL(8), L. MASCHIO(1,11), A. ERBA(1,11)  *
 *  M. RE'RAT(14), S. CASASSA(1,11)                                            *
 *                                                                             *
 *        CONTRIBUTIONS TO THE CODE HAVE ALSO BEEN GIVEN BY                    *
 *                                                                             *
 *  M. FERRABONE(1,11), M. DE LA PIERRE(1,11), M. FERRERO(1,11),               *
 *  J. BAIMA(1,11), E. ALBANESE(1,11), M.F. PEINTINGER(12), R. BAST(13),       *
 *  B. KIRTMAN(15), V. LACIVITA(1,11), R. DEMICHELIS(1,16)                     *
 *  G. BRANDEBURG(17), S. SALUSTRO(1,11), G. SANSONE(1,11)                     *
 *  M.T. RUGGIERO(18)                                                          *
 *                                                                             *
 * (1) THEORETICAL CHEMISTRY GROUP - UNIVERSITA' DI TORINO - TORINO (ITALY)    *

 * (2) COMPUTATIONAL SCIENCE & ENGINEERING DEPARTMENT - STFC DARESBURY (UK)    *
 * (3) UNIVERSIDAD AUTONOMA DEL ESTADO DE MORELOS - CUERNAVACA (MEXICO)        *
 * (4) UNIVERSITE' DE LORRAINE - NANCY (FRANCE)                                *
 * (5) UNIVERSITAET STUTTGART- STUTTGART (GERMANY)                             *
 * (6) IMPERIAL COLLEGE - LONDON (UK)                                          *
 * (7) OXFORD E-RESEARCH CENTRE - OXFORD (UK)                                  *
 * (8) UPMC - SORBONNE UNIVERSITES - PARIS (FRANCE)                            *
 * (9) UNIVERSIDAD DE BARCELONA - BARCELONA (SPAIN)                            *
 *(10) UNIVERSITA' DI NAPOLI "FEDERICO II" - NAPOLI (ITALY)                    *
 *(11) NIS - NANOSTRUCTURED INTERFACES AND SURFACES - TORINO (ITALY)           *
 *(12) MPI FUER CHEMISCHE ENERGIEKONVERSION - MUELHEIM AN DER RUHR (GERMANY)   *
 *(13) UNIVERSITY OF TROMSO - TROMSO (NORWAY)                                  *
 *(14) UNIVERSITE' DE PAU ET DES PAYS DE L'ADOUR - PAU (FRANCE)                *
 *(15) UNIVERSITY OF CALIFORNIA SANTA BARBARA - SANTA BARBARA (USA)            *
 *(16) CURTIN UNIVERSITY - PERTH (AUSTRALIA)                                   *
 *(17) UNIVERSITY COLLEGE LONDON - LONDON (UK)                                 *
 *(18) CAMBRIDGE UNIVERSITY - CAMBRIDGE (UK)                                   *
 *                                                                             *
 *******************************************************************************
 EEEEEEEEEE STARTING  DATE 10 03 2023 TIME 10:31:19.8
 Bulk                                                                            

 GEOMETRY INPUT FROM EXTERNAL FILE (FORTRAN UNIT 34)
 3D - CRYSTAL 

 *******************************************************************************
 LATTICE PARAMETERS  (ANGSTROMS AND DEGREES) - PRIMITIVE CELL
       A          B          C        ALPHA      BETA     GAMMA        VOLUME
    9.91429    9.89009    9.90847    60.04252  59.98269  60.08362    687.558609
 INFORMATION **** CHKGRP **** SPGR WITH NO INVERSION

 NUMBER OF IRREDUCIBLE ATOMS IN THE CELL:   54

 CARTESIAN COORDINATES (ANGSTROM) - IRREDUCIBLE ATOMS AND SYMMETRY RELATED

 AT.IRR.  AT  AT.N.          X                   Y                   Z
     1     1    20   -2.340281064000E-03 -1.479733979300E-02 -2.998333653800E-02
     2     2    20    2.350533722944E+00  2.328563567999E+00 -3.872976785500E-02
     3     3    20   -2.325476787547E+00 -2.320110863365E+00 -2.630487642000E-03
     4     4    20    2.388550341203E+00 -3.919626402500E-02  2.365241158842E+00
     5     5    20    4.672602520036E+00  2.294144625239E+00  2.322455880925E+00
     6     6    20    4.637501155200E-02 -2.318361042212E+00  2.334530845955E+00
     7     7    20   -2.365217759717E+00 -2.963505004300E-02 -2.338436404056E+00
     8     8    20   -1.000441039000E-03  2.331192818321E+00 -2.352900781870E+00
     9     9    12   -4.679353174181E+00 -2.364423200104E+00 -2.282803661229E+00
    10    10    20   -2.551887070100E-02  2.363778219537E+00  2.352675696000E+00
    11    11    20    2.291689686027E+00  4.701427931784E+00  2.362637857477E+00
    12    12    12   -2.314447087830E+00  1.989198078400E-02  2.263637726092E+00
    13    13    12    2.341902927652E+00  2.453387072569E+00  4.742124082740E+00
    14    14    20    4.622921811508E+00  4.683599711313E+00  4.692786447861E+00
    15    15    20   -1.063818083200E-02  1.724141998500E-02  4.662964811614E+00
    16    16    12   -2.381988897110E+00  2.316962061036E+00  3.669280451100E-02
    17    17    20   -7.512215477900E-02  4.690933645133E+00  3.148195856000E-02
    18    18    20   -4.676085880070E+00  2.977966717300E-02 -4.281443211000E-03
    19    19    12    2.312964945900E-02 -2.335185877917E+00 -2.368298548896E+00
    20    20    20    2.340256155506E+00 -4.619987828000E-02 -2.343669600685E+00
    21    21    20   -2.320432853689E+00 -4.659351311411E+00 -2.383721119230E+00
    22    22    12    2.420426945407E+00 -2.360636420336E+00 -2.425486153600E-02
    23    23    12    4.676774255645E+00 -2.586323407200E-02  5.874499682100E-02
    24    24    20    4.605165147700E-02 -4.670888713825E+00 -7.976393256000E-03
    25    25    12   -2.360800852391E+00 -2.304560947116E+00 -4.714227702894E+00
    26    26    12   -9.749231015900E-02 -6.628964444200E-02 -4.629829153677E+00
    27    27    20   -4.616658089785E+00 -4.663867966910E+00 -4.681795677792E+00
    28    28     8   -1.838144328000E-02 -9.609876330200E-02 -2.433301521157E+00
    29    29     8    2.343747334257E+00  2.419877912660E+00 -2.353454988137E+00
    30    30     8   -2.333110668341E+00 -2.343736278146E+00 -2.363400843769E+00
    31    31     8    2.436541481695E+00 -7.913680303500E-02 -6.683759285000E-03
    32    32     8    4.677932891711E+00  2.271528662329E+00 -1.039910871700E-02
    33    33     8    7.683081434700E-02 -2.333243347226E+00 -5.587622625100E-02
    34    34     8    4.757318500304E+00 -8.759140116700E-02  2.235509360146E+00
    35    35     8    7.006407179714E+00  2.269535849151E+00  2.327303662920E+00
    36    36     8    2.448435941764E+00 -2.346983748079E+00  2.321640035875E+00
    37    37     8   -6.774650612200E-02  2.343407533762E+00 -7.361134469000E-03
    38    38     8    2.322841953526E+00  4.677395131994E+00 -2.026476360400E-02
    39    39     8   -2.339163837732E+00  8.065554229100E-02  9.685514424500E-02
    40    40     8    2.335678097258E+00  2.339159016412E+00  2.365005591904E+00
    41    41     8    4.664855161225E+00  4.754029299982E+00  2.342624683816E+00
    42    42     8   -5.499205431200E-02  1.030440871000E-03  2.310621717650E+00
    43    43     8    4.577774772829E+00  2.338633548379E+00  4.736697533401E+00
    44    44     8    7.064787827499E+00  4.676651928616E+00  4.678854791236E+00
    45    45     8    2.318136229184E+00 -5.523184885600E-02  4.671282648834E+00
    46    46     8   -1.218619188440E-01  4.780544956960E+00  2.424833084777E+00
    47    47     8    2.344505038167E+00  7.013107415180E+00  2.337103548152E+00
    48    48     8   -2.327389529723E+00  2.290030956408E+00  2.205539029076E+00
    49    49     8    2.239369018708E+00  4.584856767150E+00  4.754655676122E+00
    50    50     8    4.673233186715E+00  7.014547299191E+00  4.647633545558E+00
    51    51     8    8.907248956300E-02  2.444323602469E+00  4.670242306692E+00
    52    52     8    4.560182846468E+00  4.703364744112E+00  7.095307705120E+00
    53    53     8    6.885750256283E+00  7.008642788523E+00  7.067606343655E+00
    54    54     8    2.444828348777E+00  2.439319258468E+00  6.884093688512E+00

 SYMMETRY CHANGED DURING OLD RUN :  INFORMATION ON SPACE GROUP LOST 
 NUMBER OF SYMMETRY OPERATORS         :    1
 *******************************************************************************
 LATTICE PARAMETERS (ANGSTROMS AND DEGREES) - BOHR = 0.5291772083 ANGSTROM
 PRIMITIVE CELL - CENTRING CODE 1/0 VOLUME=   687.558609 - DENSITY  3.302 g/cm^3
         A              B              C           ALPHA      BETA       GAMMA 
     9.91428517     9.89009447     9.90846993    60.042519  59.982686  60.083621
 *******************************************************************************
 ATOMS IN THE ASYMMETRIC UNIT   54 - ATOMS IN THE UNIT CELL:   54
     ATOM                 X/A                 Y/B                 Z/C    
 *******************************************************************************
      1 T  20 CA   -3.027023923959E-03 -1.256451467665E-03  9.194127687439E-04
      2 T  20 CA   -4.410198789342E-03 -8.864318251468E-04  3.365687813219E-01
      3 T  20 CA    2.749089521694E-04 -8.842838992854E-04 -3.312235179385E-01
      4 T  20 CA   -4.259785864841E-03  3.426095530921E-01 -1.197122819940E-03
      5 T  20 CA   -3.880349718472E-03  3.363426401697E-01  3.312557494751E-01
      6 T  20 CA   -1.881270856676E-03  3.356040789225E-01 -3.286883772796E-01
      7 T  20 CA   -3.943168632093E-04 -3.341170973517E-01 -3.958353010850E-03
      8 T  20 CA   -1.749646925616E-03 -3.345911801630E-01  3.341543620132E-01
      9 T  12 MG    2.184215554103E-03 -3.289774011676E-01 -3.395795799491E-01
     10 T  20 CA    3.381106351651E-01 -2.117534177516E-03 -1.336927367252E-03
     11 T  20 CA    3.401977921352E-01 -2.550294454703E-03  3.300230147689E-01
     12 T  12 MG    3.279205241736E-01 -4.875172660204E-03 -3.254750744419E-01
     13 T  12 MG    3.462608321218E-01  3.315287478590E-01  3.410992860972E-03
     14 T  20 CA    3.390416667099E-01  3.319305548541E-01  3.287634809298E-01
     15 T  20 CA    3.347369827347E-01  3.315118519394E-01 -3.325509706078E-01
     16 T  12 MG    3.374710396239E-01 -3.327785641515E-01 -7.499175177196E-03
     17 T  20 CA    3.418002947515E-01 -3.376254952484E-01  3.267954043842E-01
     18 T  20 CA    3.351189764777E-01 -3.365114489640E-01 -3.313966477922E-01
     19 T  12 MG   -3.370181642892E-01 -1.209447299067E-03  4.320404974884E-03
     20 T  20 CA   -3.373455129839E-01  2.871123070090E-03  3.311578805082E-01
     21 T  20 CA   -3.366558470831E-01 -4.011635658104E-03 -3.275697046237E-01
     22 T  12 MG   -3.424347790256E-01  3.395287523451E-01  6.241515476312E-03
     23 T  12 MG   -3.310024884788E-01  3.401766542877E-01  3.278352954106E-01
     24 T  20 CA   -3.366227652268E-01  3.358003080162E-01 -3.291205096574E-01
     25 T  12 MG   -3.323202154536E-01 -3.414964962857E-01  3.857076581449E-03
     26 T  12 MG   -3.281594428662E-01 -3.333696744520E-01  3.189685107457E-01
     27 T  20 CA   -3.372980680139E-01 -3.321040395420E-01 -3.276946211722E-01
     28 T   8 O    -1.791772532752E-01 -1.684933891573E-01  1.656191199602E-01
     29 T   8 O    -1.626003000221E-01 -1.734350939302E-01 -4.920925516827E-01
     30 T   8 O    -1.693293036001E-01 -1.685903599031E-01 -1.648507047148E-01
     31 T   8 O    -1.797871898528E-01  1.792432322452E-01  1.687803238074E-01
     32 T   8 O    -1.723446658180E-01  1.714873513778E-01  4.966323756063E-01
     33 T   8 O    -1.756924395010E-01  1.678761824467E-01 -1.568564658232E-01
     34 T   8 O    -1.858068084483E-01 -4.939820037742E-01  1.737242491700E-01
     35 T   8 O    -1.716369773116E-01 -4.948177686916E-01  4.957653266140E-01
     36 T   8 O    -1.760548786175E-01 -4.916622342415E-01 -1.583252771486E-01
     37 T   8 O     1.712564257763E-01 -1.724747830199E-01  1.627458764907E-01
     38 T   8 O     1.662205858132E-01 -1.690391830497E-01 -4.992836271635E-01
     39 T   8 O     1.793891424313E-01 -1.659452387551E-01 -1.681601540676E-01
     40 T   8 O     1.689347164175E-01  1.692149669540E-01  1.645930816664E-01
     41 T   8 O     1.733622443799E-01  1.618174826381E-01 -4.953777698368E-01
     42 T   8 O     1.688797073674E-01  1.612563324718E-01 -1.688728949060E-01
     43 T   8 O     1.783292588304E-01  4.990649363958E-01  1.552367008400E-01
     44 T   8 O     1.635007501255E-01 -4.941119745615E-01 -4.964122425441E-01
     45 T   8 O     1.641764857734E-01 -4.963465462312E-01 -1.720604862952E-01
     46 T   8 O    -4.776937909608E-01 -1.761793577937E-01  1.589179964065E-01
     47 T   8 O     4.993035240366E-01 -1.654488142290E-01 -4.995881385505E-01
     48 T   8 O     4.864300520670E-01 -1.718385377328E-01 -1.604163154478E-01
     49 T   8 O    -4.936828311854E-01  1.731046103682E-01  1.471440957131E-01
     50 T   8 O     4.982986194758E-01  1.660759848167E-01 -4.982517237375E-01
     51 T   8 O    -4.989367317116E-01  1.660811426794E-01 -1.529308171090E-01
     52 T   8 O    -4.836337449622E-01  4.978702254081E-01  1.541097833231E-01
     53 T   8 O    -4.871363458140E-01  4.976493369873E-01  4.864486169112E-01
     54 T   8 O     4.907737565493E-01  4.930818844906E-01 -1.432196778642E-01

 T = ATOM BELONGING TO THE ASYMMETRIC UNIT
 *******************************************************************************
 * GEOMETRY EDITING - INPUT COORDINATES ARE GIVEN IN ANGSTROM         
 *******************************************************************************

 GCALCO - MAX INDICES DIRECT LATTICE VECTOR    14    15    15
 NO.OF VECTORS CREATED 6999 STARS 3500 RMAX   198.24008 BOHR

 GEOMETRY FOR WAVE FUNCTION - DIMENSIONALITY OF THE SYSTEM    3
 (NON PERIODIC DIRECTION: LATTICE PARAMETER FORMALLY SET TO 500)
 *******************************************************************************
 LATTICE PARAMETERS (ANGSTROMS AND DEGREES) - BOHR = 0.5291772083 ANGSTROM
 PRIMITIVE CELL - CENTRING CODE 1/0 VOLUME=   687.558609 - DENSITY  3.302 g/cm^3
         A              B              C           ALPHA      BETA       GAMMA 
     9.91428517     9.89009447     9.90846993    60.042519  59.982686  60.083621
 *******************************************************************************
 ATOMS IN THE ASYMMETRIC UNIT   54 - ATOMS IN THE UNIT CELL:   54
     ATOM                 X/A                 Y/B                 Z/C    
 *******************************************************************************
      1 T  20 CA   -3.027023923959E-03 -1.256451467665E-03  9.194127687439E-04
      2 T  20 CA   -4.410198789342E-03 -8.864318251469E-04  3.365687813219E-01
      3 T  20 CA    2.749089521693E-04 -8.842838992854E-04 -3.312235179385E-01
      4 T  20 CA   -4.259785864841E-03  3.426095530921E-01 -1.197122819939E-03
      5 T  20 CA   -3.880349718472E-03  3.363426401697E-01  3.312557494751E-01
      6 T  20 CA   -1.881270856676E-03  3.356040789225E-01 -3.286883772796E-01
      7 T  20 CA   -3.943168632094E-04 -3.341170973517E-01 -3.958353010850E-03
      8 T  20 CA   -1.749646925616E-03 -3.345911801630E-01  3.341543620132E-01
      9 T  12 MG    2.184215554103E-03 -3.289774011676E-01 -3.395795799491E-01
     10 T  20 CA    3.381106351651E-01 -2.117534177516E-03 -1.336927367252E-03
     11 T  20 CA    3.401977921352E-01 -2.550294454703E-03  3.300230147689E-01
     12 T  12 MG    3.279205241736E-01 -4.875172660204E-03 -3.254750744419E-01
     13 T  12 MG    3.462608321218E-01  3.315287478590E-01  3.410992860972E-03
     14 T  20 CA    3.390416667099E-01  3.319305548541E-01  3.287634809298E-01
     15 T  20 CA    3.347369827347E-01  3.315118519394E-01 -3.325509706078E-01
     16 T  12 MG    3.374710396239E-01 -3.327785641515E-01 -7.499175177196E-03
     17 T  20 CA    3.418002947515E-01 -3.376254952484E-01  3.267954043842E-01
     18 T  20 CA    3.351189764777E-01 -3.365114489640E-01 -3.313966477922E-01
     19 T  12 MG   -3.370181642892E-01 -1.209447299067E-03  4.320404974884E-03
     20 T  20 CA   -3.373455129839E-01  2.871123070090E-03  3.311578805082E-01
     21 T  20 CA   -3.366558470831E-01 -4.011635658104E-03 -3.275697046237E-01
     22 T  12 MG   -3.424347790256E-01  3.395287523451E-01  6.241515476312E-03
     23 T  12 MG   -3.310024884788E-01  3.401766542877E-01  3.278352954106E-01
     24 T  20 CA   -3.366227652268E-01  3.358003080162E-01 -3.291205096574E-01
     25 T  12 MG   -3.323202154536E-01 -3.414964962857E-01  3.857076581449E-03
     26 T  12 MG   -3.281594428662E-01 -3.333696744520E-01  3.189685107457E-01
     27 T  20 CA   -3.372980680139E-01 -3.321040395420E-01 -3.276946211722E-01
     28 T   8 O    -1.791772532752E-01 -1.684933891573E-01  1.656191199602E-01
     29 T   8 O    -1.626003000221E-01 -1.734350939302E-01 -4.920925516827E-01
     30 T   8 O    -1.693293036001E-01 -1.685903599031E-01 -1.648507047148E-01
     31 T   8 O    -1.797871898528E-01  1.792432322452E-01  1.687803238074E-01
     32 T   8 O    -1.723446658180E-01  1.714873513778E-01  4.966323756063E-01
     33 T   8 O    -1.756924395010E-01  1.678761824467E-01 -1.568564658232E-01
     34 T   8 O    -1.858068084483E-01 -4.939820037742E-01  1.737242491700E-01
     35 T   8 O    -1.716369773116E-01 -4.948177686916E-01  4.957653266140E-01
     36 T   8 O    -1.760548786175E-01 -4.916622342415E-01 -1.583252771486E-01
     37 T   8 O     1.712564257763E-01 -1.724747830199E-01  1.627458764907E-01
     38 T   8 O     1.662205858132E-01 -1.690391830497E-01 -4.992836271635E-01
     39 T   8 O     1.793891424313E-01 -1.659452387551E-01 -1.681601540676E-01
     40 T   8 O     1.689347164175E-01  1.692149669540E-01  1.645930816664E-01
     41 T   8 O     1.733622443799E-01  1.618174826381E-01 -4.953777698368E-01
     42 T   8 O     1.688797073674E-01  1.612563324718E-01 -1.688728949060E-01
     43 T   8 O     1.783292588304E-01  4.990649363958E-01  1.552367008400E-01
     44 T   8 O     1.635007501255E-01 -4.941119745615E-01 -4.964122425441E-01
     45 T   8 O     1.641764857734E-01 -4.963465462312E-01 -1.720604862952E-01
     46 T   8 O    -4.776937909608E-01 -1.761793577937E-01  1.589179964065E-01
     47 T   8 O     4.993035240366E-01 -1.654488142290E-01 -4.995881385505E-01
     48 T   8 O     4.864300520670E-01 -1.718385377328E-01 -1.604163154478E-01
     49 T   8 O    -4.936828311854E-01  1.731046103682E-01  1.471440957131E-01
     50 T   8 O     4.982986194758E-01  1.660759848167E-01 -4.982517237375E-01
     51 T   8 O    -4.989367317116E-01  1.660811426794E-01 -1.529308171090E-01
     52 T   8 O    -4.836337449622E-01  4.978702254081E-01  1.541097833231E-01
     53 T   8 O    -4.871363458140E-01  4.976493369873E-01  4.864486169112E-01
     54 T   8 O     4.907737565493E-01  4.930818844906E-01 -1.432196778642E-01

 T = ATOM BELONGING TO THE ASYMMETRIC UNIT

 ****    1 SYMMOPS - TRANSLATORS IN FRACTIONAL UNITS
 **** MATRICES AND TRANSLATORS IN THE CRYSTALLOGRAPHIC REFERENCE FRAME
   V INV                    ROTATION MATRICES                   TRANSLATORS
   1   1  1.00  0.00  0.00  0.00  1.00  0.00  0.00  0.00  1.00  0.00  0.00  0.00

 DIRECT LATTICE VECTORS CARTESIAN COMPONENTS (ANGSTROM)
          X                    Y                    Z
  -0.397226521640E-02   0.701884208670E+01   0.700206329000E+01
   0.699605681477E+01  -0.264169287031E-02   0.699064736990E+01
   0.700218755471E+01   0.701050081331E+01  -0.490997559844E-02


 CARTESIAN COORDINATES - PRIMITIVE CELL
 *******************************************************************************
 *      ATOM          X(ANGSTROM)         Y(ANGSTROM)         Z(ANGSTROM)
 *******************************************************************************
    1    20 CA   -2.340281064000E-03 -1.479733979300E-02 -2.998333653800E-02
    2    20 CA    2.350533722944E+00  2.328563567999E+00 -3.872976785500E-02
    3    20 CA   -2.325476787547E+00 -2.320110863365E+00 -2.630487642000E-03
    4    20 CA    2.388550341203E+00 -3.919626402500E-02  2.365241158842E+00
    5    20 CA    4.672602520036E+00  2.294144625239E+00  2.322455880925E+00
    6    20 CA    4.637501155200E-02 -2.318361042212E+00  2.334530845955E+00
    7    20 CA   -2.365217759717E+00 -2.963505004300E-02 -2.338436404056E+00
    8    20 CA   -1.000441039001E-03  2.331192818321E+00 -2.352900781870E+00
    9    12 MG   -4.679353174181E+00 -2.364423200104E+00 -2.282803661229E+00
   10    20 CA   -2.551887070100E-02  2.363778219537E+00  2.352675696000E+00
   11    20 CA    2.291689686027E+00  4.701427931784E+00  2.362637857477E+00
   12    12 MG   -2.314447087830E+00  1.989198078400E-02  2.263637726092E+00
   13    12 MG    2.341902927652E+00  2.453387072569E+00  4.742124082740E+00
   14    20 CA    4.622921811508E+00  4.683599711313E+00  4.692786447861E+00
   15    20 CA   -1.063818083200E-02  1.724141998500E-02  4.662964811614E+00
   16    12 MG   -2.381988897110E+00  2.316962061036E+00  3.669280451100E-02
   17    20 CA   -7.512215477900E-02  4.690933645133E+00  3.148195856000E-02
   18    20 CA   -4.676085880070E+00  2.977966717300E-02 -4.281443211000E-03
   19    12 MG    2.312964945900E-02 -2.335185877917E+00 -2.368298548896E+00
   20    20 CA    2.340256155506E+00 -4.619987828000E-02 -2.343669600685E+00
   21    20 CA   -2.320432853689E+00 -4.659351311411E+00 -2.383721119230E+00
   22    12 MG    2.420426945407E+00 -2.360636420336E+00 -2.425486153600E-02
   23    12 MG    4.676774255645E+00 -2.586323407200E-02  5.874499682100E-02
   24    20 CA    4.605165147700E-02 -4.670888713825E+00 -7.976393256000E-03
   25    12 MG   -2.360800852391E+00 -2.304560947116E+00 -4.714227702894E+00
   26    12 MG   -9.749231015900E-02 -6.628964444200E-02 -4.629829153677E+00
   27    20 CA   -4.616658089785E+00 -4.663867966910E+00 -4.681795677792E+00
   28     8 O    -1.838144328000E-02 -9.609876330200E-02 -2.433301521157E+00
   29     8 O     2.343747334257E+00  2.419877912660E+00 -2.353454988137E+00
   30     8 O    -2.333110668341E+00 -2.343736278146E+00 -2.363400843769E+00
   31     8 O     2.436541481695E+00 -7.913680303500E-02 -6.683759285000E-03
   32     8 O     4.677932891711E+00  2.271528662329E+00 -1.039910871700E-02
   33     8 O     7.683081434700E-02 -2.333243347226E+00 -5.587622625100E-02
   34     8 O     4.757318500304E+00 -8.759140116700E-02  2.235509360146E+00
   35     8 O     7.006407179714E+00  2.269535849151E+00  2.327303662920E+00
   36     8 O     2.448435941764E+00 -2.346983748079E+00  2.321640035875E+00
   37     8 O    -6.774650612200E-02  2.343407533762E+00 -7.361134469000E-03
   38     8 O     2.322841953526E+00  4.677395131994E+00 -2.026476360400E-02
   39     8 O    -2.339163837732E+00  8.065554229100E-02  9.685514424500E-02
   40     8 O     2.335678097258E+00  2.339159016412E+00  2.365005591904E+00
   41     8 O     4.664855161225E+00  4.754029299982E+00  2.342624683816E+00
   42     8 O    -5.499205431200E-02  1.030440871000E-03  2.310621717650E+00
   43     8 O     4.577774772829E+00  2.338633548379E+00  4.736697533401E+00
   44     8 O     7.064787827499E+00  4.676651928616E+00  4.678854791236E+00
   45     8 O     2.318136229184E+00 -5.523184885600E-02  4.671282648834E+00
   46     8 O    -1.218619188440E-01  4.780544956960E+00  2.424833084777E+00
   47     8 O     2.344505038167E+00  7.013107415180E+00  2.337103548152E+00
   48     8 O    -2.327389529723E+00  2.290030956408E+00  2.205539029076E+00
   49     8 O     2.239369018708E+00  4.584856767150E+00  4.754655676122E+00
   50     8 O     4.673233186715E+00  7.014547299191E+00  4.647633545558E+00
   51     8 O     8.907248956300E-02  2.444323602469E+00  4.670242306692E+00
   52     8 O     4.560182846468E+00  4.703364744112E+00  7.095307705120E+00
   53     8 O     6.885750256283E+00  7.008642788523E+00  7.067606343655E+00
   54     8 O     2.444828348777E+00  2.439319258468E+00  6.884093688512E+00
 WARNING **** CRYSTA **** TESTGEOM  DIRECTIVE - GEOMETRY EDITING COMPLETE
 TTTTTTTTTTTTTTTTTTTTTTTTTTTTTT END         TELAPSE        0.01 TCPU        0.01
 EEEEEEEEEE TERMINATION  DATE 10 03 2023 TIME 10:31:19.8
Fri 10 Mar 2023 10:31:19 GMT
Contents of temporary directory:
total 8
-rw-r--r--  1 brunocamino  admin  4027 10 Mar 10:31 fort.34
SCF abnormal end - no wf written in fort.9
geometry input file fort.34 saved as /Users/brunocamino/Desktop/Imperial/cmsg_icl/solid-solutions/./data/crystal/testgeom_opt/CaMgO_testgeom_2649.gui
temporary directory /Users/brunocamino/crystal/tmp removed
