date Fri 10 Mar 2023 10:32:17 GMT
hostname MacBook-Pro-8
system Darwin MacBook-Pro-8 21.6.0 Darwin Kernel Version 21.6.0: Mon Aug 22 20:20:05 PDT 2022; root:xnu-8020.140.49~2/RELEASE_ARM64_T8101 arm64
user brunocamino
output data in /Users/brunocamino/Desktop/Imperial/cmsg_icl/solid-solutions/./data/crystal/testgeom_opt/CaMgO_testgeom_3367.out
crystal executable in /Users/brunocamino/crystal
input data in /Users/brunocamino/Desktop/Imperial/cmsg_icl/solid-solutions/./data/crystal/testgeom_opt/CaMgO_testgeom_3367.d12
temporary directory /Users/brunocamino/crystal/tmp
external geometry input from /Users/brunocamino/Desktop/Imperial/cmsg_icl/solid-solutions/./data/crystal/testgeom_opt/CaMgO_testgeom_3367.gui
external geometry input saved in /Users/brunocamino/Desktop/Imperial/cmsg_icl/solid-solutions/./data/crystal/testgeom_opt/CaMgO_testgeom_3367_inp.gui
Bulk 
EXTERNAL
EXTPRT
TESTGEOM
END

         
 *******************************************************************************
 *                                                                             *
 *                               CRYSTAL17                                     *
 *                      public : 1.0.1 - Feb 1st, 2017                         *
 *                       HTTP://WWW.CRYSTAL.UNITO.IT                           *
 *                                                                             *
 *                              MAIN AUTHORS                                   *
 *                                                                             *
 *  R. DOVESI(1,11), V.R. SAUNDERS(2), C. ROETTI(1,11), R. ORLANDO(1,11),      *
 *  C.M. ZICOVICH-WILSON(1,3), F. PASCALE(4), B. CIVALLERI(1,11),              *
 *  K. DOLL(5), N.M. HARRISON(2,6), I.J. BUSH(7), Ph. D'ARCO(8),               *
 *  M. LLUNELL(9), M. CAUSA'(10), Y. NOEL(8), L. MASCHIO(1,11), A. ERBA(1,11)  *
 *  M. RE'RAT(14), S. CASASSA(1,11)                                            *
 *                                                                             *
 *        CONTRIBUTIONS TO THE CODE HAVE ALSO BEEN GIVEN BY                    *
 *                                                                             *
 *  M. FERRABONE(1,11), M. DE LA PIERRE(1,11), M. FERRERO(1,11),               *
 *  J. BAIMA(1,11), E. ALBANESE(1,11), M.F. PEINTINGER(12), R. BAST(13),       *
 *  B. KIRTMAN(15), V. LACIVITA(1,11), R. DEMICHELIS(1,16)                     *
 *  G. BRANDEBURG(17), S. SALUSTRO(1,11), G. SANSONE(1,11)                     *
 *  M.T. RUGGIERO(18)                                                          *
 *                                                                             *
 * (1) THEORETICAL CHEMISTRY GROUP - UNIVERSITA' DI TORINO - TORINO (ITALY)    *

 * (2) COMPUTATIONAL SCIENCE & ENGINEERING DEPARTMENT - STFC DARESBURY (UK)    *
 * (3) UNIVERSIDAD AUTONOMA DEL ESTADO DE MORELOS - CUERNAVACA (MEXICO)        *
 * (4) UNIVERSITE' DE LORRAINE - NANCY (FRANCE)                                *
 * (5) UNIVERSITAET STUTTGART- STUTTGART (GERMANY)                             *
 * (6) IMPERIAL COLLEGE - LONDON (UK)                                          *
 * (7) OXFORD E-RESEARCH CENTRE - OXFORD (UK)                                  *
 * (8) UPMC - SORBONNE UNIVERSITES - PARIS (FRANCE)                            *
 * (9) UNIVERSIDAD DE BARCELONA - BARCELONA (SPAIN)                            *
 *(10) UNIVERSITA' DI NAPOLI "FEDERICO II" - NAPOLI (ITALY)                    *
 *(11) NIS - NANOSTRUCTURED INTERFACES AND SURFACES - TORINO (ITALY)           *
 *(12) MPI FUER CHEMISCHE ENERGIEKONVERSION - MUELHEIM AN DER RUHR (GERMANY)   *
 *(13) UNIVERSITY OF TROMSO - TROMSO (NORWAY)                                  *
 *(14) UNIVERSITE' DE PAU ET DES PAYS DE L'ADOUR - PAU (FRANCE)                *
 *(15) UNIVERSITY OF CALIFORNIA SANTA BARBARA - SANTA BARBARA (USA)            *
 *(16) CURTIN UNIVERSITY - PERTH (AUSTRALIA)                                   *
 *(17) UNIVERSITY COLLEGE LONDON - LONDON (UK)                                 *
 *(18) CAMBRIDGE UNIVERSITY - CAMBRIDGE (UK)                                   *
 *                                                                             *
 *******************************************************************************
 EEEEEEEEEE STARTING  DATE 10 03 2023 TIME 10:32:18.0
 Bulk                                                                            

 GEOMETRY INPUT FROM EXTERNAL FILE (FORTRAN UNIT 34)
 3D - CRYSTAL 

 *******************************************************************************
 LATTICE PARAMETERS  (ANGSTROMS AND DEGREES) - PRIMITIVE CELL
       A          B          C        ALPHA      BETA     GAMMA        VOLUME
    9.91502    9.91431    9.91964    59.98599  60.13072  60.03417    690.288623
 INFORMATION **** CHKGRP **** SPGR WITH NO INVERSION

 NUMBER OF IRREDUCIBLE ATOMS IN THE CELL:   54

 CARTESIAN COORDINATES (ANGSTROM) - IRREDUCIBLE ATOMS AND SYMMETRY RELATED

 AT.IRR.  AT  AT.N.          X                   Y                   Z
     1     1    20    1.708094553900E-02 -1.464506979400E-02 -4.996566191700E-02
     2     2    20    2.335804721170E+00  2.332302073683E+00 -8.320490460200E-02
     3     3    20   -2.330330631638E+00 -2.347056476804E+00 -1.493872010600E-02
     4     4    20    2.330470926194E+00 -4.107128107100E-02  2.358115865035E+00
     5     5    20    4.716412357697E+00  2.312323692861E+00  2.337195473081E+00
     6     6    20    1.514194909400E-02 -2.333730026265E+00  2.365684672186E+00
     7     7    20   -2.299722686827E+00 -3.424337874900E-02 -2.328778819115E+00
     8     8    12    3.801156897100E-02  2.279684220745E+00 -2.372356477131E+00
     9     9    12   -4.779868674117E+00 -2.368504035132E+00 -2.312290378655E+00
    10    10    20   -2.844648792200E-02  2.329409490084E+00  2.419542827352E+00
    11    11    20    2.317532414886E+00  4.732245297485E+00  2.389094965467E+00
    12    12    12   -2.319896119777E+00  3.701091525000E-02  2.457604627139E+00
    13    13    20    2.313597028112E+00  2.365853048758E+00  4.712972961259E+00
    14    14    20    4.680009381349E+00  4.726795909896E+00  4.629957241837E+00
    15    15    12   -2.649985850000E-04 -5.406287123000E-03  4.629261959499E+00
    16    16    20   -2.338018649467E+00  2.338008369918E+00  3.894515451200E-02
    17    17    20    6.278670326000E-03  4.689259184031E+00 -4.251123066800E-02
    18    18    20   -4.692187590957E+00 -1.590762229400E-02  1.106817029000E-03
    19    19    12    5.566949077000E-02 -2.265460685118E+00 -2.352095875819E+00
    20    20    12    2.216162991215E+00  8.267991096000E-03 -2.385053353468E+00
    21    21    12   -2.273046342114E+00 -4.700772892604E+00 -2.348680316046E+00
    22    22    12    2.326078008086E+00 -2.285411397103E+00 -8.922725694600E-02
    23    23    20    4.683794857517E+00 -3.948818019000E-03 -5.794036540900E-02
    24    24    20    1.257057614900E-02 -4.677590328321E+00 -5.832497825900E-02
    25    25    20   -2.348056434260E+00 -2.359924487727E+00 -4.642659233570E+00
    26    26    12   -3.756501078000E-03  1.303003608800E-02 -4.568619461056E+00
    27    27    20   -4.680827130730E+00 -4.691529030574E+00 -4.613204671978E+00
    28    28     8    8.074699255200E-02  7.511619529000E-03 -2.431192189436E+00
    29    29     8    2.247515970883E+00  2.352220251946E+00 -2.342562869004E+00
    30    30     8   -2.298140863263E+00 -2.438039609308E+00 -2.334921657937E+00
    31    31     8    2.341794568095E+00 -8.995209124700E-02 -1.209317774630E-01
    32    32     8    4.677630920573E+00  2.331112939148E+00 -9.986104692000E-02
    33    33     8    1.028531234430E-01 -2.329853425835E+00 -4.892940886200E-02
    34    34     8    4.759608801662E+00 -6.792099732000E-03  2.354524147547E+00
    35    35     8    7.011516311563E+00  2.234339324046E+00  2.409242561486E+00
    36    36     8    2.324073217662E+00 -2.337125948270E+00  2.341866574146E+00
    37    37     8   -3.425979036000E-03  2.330061772240E+00 -4.713384099000E-02
    38    38     8    2.338359332422E+00  4.669488816316E+00 -4.497362998500E-02
    39    39     8   -2.330805147854E+00 -1.007200379000E-03  1.220308036300E-02
    40    40     8    2.345034658535E+00  2.337056855057E+00  2.374851232154E+00
    41    41     8    4.679710921078E+00  4.753194939657E+00  2.337641361227E+00
    42    42     8   -7.048680242800E-02  5.608803229000E-03  2.410686801104E+00
    43    43     8    4.764289888521E+00  2.343403706062E+00  4.686822817575E+00
    44    44     8    7.121896744554E+00  4.699432313600E+00  4.662418867496E+00
    45    45     8    2.246748278092E+00 -8.098598635200E-02  4.662642887159E+00
    46    46     8   -1.474201217000E-03  4.763272930194E+00  2.427508611368E+00
    47    47     8    2.317193653051E+00  7.011258249793E+00  2.404945967083E+00
    48    48     8   -2.341532796857E+00  2.224775299436E+00  2.443655358100E+00
    49    49     8    2.230295173664E+00  4.767693019218E+00  4.754405490336E+00
    50    50     8    4.712428828113E+00  7.102129728655E+00  4.580005840971E+00
    51    51     8   -7.073974392200E-02  2.323782651295E+00  4.673974132651E+00
    52    52     8    4.588870291693E+00  4.672896886544E+00  6.984034715420E+00
    53    53     8    7.011010613522E+00  7.008609067983E+00  6.969499768531E+00
    54    54     8    2.345692515134E+00  2.417839350466E+00  7.017472183311E+00

 SYMMETRY CHANGED DURING OLD RUN :  INFORMATION ON SPACE GROUP LOST 
 NUMBER OF SYMMETRY OPERATORS         :    1
 *******************************************************************************
 LATTICE PARAMETERS (ANGSTROMS AND DEGREES) - BOHR = 0.5291772083 ANGSTROM
 PRIMITIVE CELL - CENTRING CODE 1/0 VOLUME=   690.288623 - DENSITY  3.289 g/cm^3
         A              B              C           ALPHA      BETA       GAMMA 
     9.91502102     9.91431287     9.91964438    59.985994  60.130722  60.034167
 *******************************************************************************
 ATOMS IN THE ASYMMETRIC UNIT   54 - ATOMS IN THE UNIT CELL:   54
     ATOM                 X/A                 Y/B                 Z/C    
 *******************************************************************************
      1 T  20 CA   -5.817426620256E-03 -1.302171264969E-03  3.726313721193E-03
      2 T  20 CA   -5.764351925737E-03 -5.683127303389E-03  3.384769109391E-01
      3 T  20 CA   -2.665262119040E-03  1.233445635122E-04 -3.321531164102E-01
      4 T  20 CA   -8.494322112071E-04  3.374084401589E-01 -5.171489859896E-03
      5 T  20 CA   -4.241982219889E-03  3.382409970435E-01  3.339405299679E-01
      6 T  20 CA    9.004410300341E-04  3.363277822647E-01 -3.339771664041E-01
      7 T  20 CA   -4.621506285546E-03 -3.277501699102E-01 -1.085441137885E-04
      8 T  12 MG   -9.012308217468E-03 -3.291576712362E-01  3.343721799616E-01
      9 T  12 MG    6.523047136452E-03 -3.369830705315E-01 -3.442355485433E-01
     10 T  20 CA    3.404422581518E-01  4.460046154454E-03 -7.994981970688E-03
     11 T  20 CA    3.427411884599E-01 -1.764005329391E-03  3.324843746927E-01
     12 T  12 MG    3.426827196744E-01  7.239771886437E-03 -3.372557652369E-01
     13 T  20 CA    3.396927199223E-01  3.325497676399E-01 -2.204052749751E-03
     14 T  20 CA    3.338069167957E-01  3.270204745658E-01  3.404799070926E-01
     15 T  12 MG    3.292328598031E-01  3.306671172162E-01 -3.300176738194E-01
     16 T  20 CA    3.358878863235E-01 -3.307457162308E-01 -2.055438668230E-03
     17 T  20 CA    3.309953175985E-01 -3.370498632407E-01  3.382534845771E-01
     18 T  20 CA    3.327990495251E-01 -3.334673341712E-01 -3.347623421145E-01
     19 T  12 MG   -3.330157914859E-01 -2.267116935061E-03  9.693287357432E-03
     20 T  12 MG   -3.269068007156E-01 -1.269174686577E-02  3.279486129663E-01
     21 T  12 MG   -3.407841183600E-01  5.575893070121E-03 -3.299527431212E-01
     22 T  12 MG   -3.348667769854E-01  3.225548531806E-01  8.541872341631E-03
     23 T  20 CA   -3.376646898147E-01  3.302298718716E-01  3.367947914643E-01
     24 T  20 CA   -3.386836195048E-01  3.303673201809E-01 -3.289007533556E-01
     25 T  20 CA   -3.318117479179E-01 -3.304135979848E-01 -4.828743857010E-03
     26 T  12 MG   -3.240852535972E-01 -3.271708527841E-01  3.259582154493E-01
     27 T  20 CA   -3.300404979663E-01 -3.283989306576E-01 -3.392130462246E-01
     28 T   8 O    -1.783083390468E-01 -1.682432217064E-01  1.793820681785E-01
     29 T   8 O    -1.589262194169E-01 -1.746076455506E-01  4.944937357059E-01
     30 T   8 O    -1.766259824742E-01 -1.566232863380E-01 -1.711729372158E-01
     31 T   8 O    -1.816477627437E-01  1.648211545095E-01  1.686569458086E-01
     32 T   8 O    -1.736588683603E-01  1.602493314379E-01 -4.939514783401E-01
     33 T   8 O    -1.769823339560E-01  1.700234240038E-01 -1.555399538329E-01
     34 T   8 O    -1.714962712294E-01 -4.920290447221E-01  1.702087157668E-01
     35 T   8 O    -1.679740986052E-01 -4.873526188981E-01  4.863923606960E-01
     36 T   8 O    -1.653208887914E-01  4.995603264694E-01 -1.683915210514E-01
     37 T   8 O     1.630832079453E-01 -1.698005839746E-01  1.694625837238E-01
     38 T   8 O     1.634794549953E-01 -1.694744769067E-01 -4.972048671977E-01
     39 T   8 O     1.666366437693E-01 -1.653074306372E-01 -1.666279064809E-01
     40 T   8 O     1.689296298107E-01  1.700197515401E-01  1.644538909854E-01
     41 T   8 O     1.725001132737E-01  1.615582467960E-01 -4.944390511636E-01
     42 T   8 O     1.770541821917E-01  1.665761593986E-01 -1.762559828315E-01
     43 T   8 O     1.618598245565E-01 -4.929136158759E-01  1.722645922992E-01
     44 T   8 O     1.604231358432E-01 -4.945384863466E-01 -4.902015140107E-01
     45 T   8 O     1.663409721112E-01  4.987129579047E-01 -1.780596208198E-01
     46 T   8 O    -4.873105421065E-01 -1.666446461031E-01  1.671159933394E-01
     47 T   8 O    -4.935519319558E-01 -1.632092922836E-01  4.940372384742E-01
     48 T   8 O     4.992747691405E-01 -1.513425387685E-01 -1.816095495200E-01
     49 T   8 O    -4.801152604505E-01  1.582514879598E-01  1.603988467657E-01
     50 T   8 O     4.973681711763E-01  1.563465538942E-01 -4.840766857805E-01
     51 T   8 O    -4.964362267160E-01  1.626996473996E-01 -1.719232415295E-01
     52 T   8 O    -4.959444924757E-01  4.923288907278E-01  1.625380972524E-01
     53 T   8 O     4.972807475288E-01  4.974602574981E-01 -4.974937406118E-01
     54 T   8 O    -4.948044724879E-01  4.955583932176E-01 -1.602960926904E-01

 T = ATOM BELONGING TO THE ASYMMETRIC UNIT
 *******************************************************************************
 * GEOMETRY EDITING - INPUT COORDINATES ARE GIVEN IN ANGSTROM         
 *******************************************************************************

 GCALCO - MAX INDICES DIRECT LATTICE VECTOR    14    15    14
 NO.OF VECTORS CREATED 6999 STARS 3500 RMAX   198.45176 BOHR

 GEOMETRY FOR WAVE FUNCTION - DIMENSIONALITY OF THE SYSTEM    3
 (NON PERIODIC DIRECTION: LATTICE PARAMETER FORMALLY SET TO 500)
 *******************************************************************************
 LATTICE PARAMETERS (ANGSTROMS AND DEGREES) - BOHR = 0.5291772083 ANGSTROM
 PRIMITIVE CELL - CENTRING CODE 1/0 VOLUME=   690.288623 - DENSITY  3.289 g/cm^3
         A              B              C           ALPHA      BETA       GAMMA 
     9.91502102     9.91431287     9.91964438    59.985994  60.130722  60.034167
 *******************************************************************************
 ATOMS IN THE ASYMMETRIC UNIT   54 - ATOMS IN THE UNIT CELL:   54
     ATOM                 X/A                 Y/B                 Z/C    
 *******************************************************************************
      1 T  20 CA   -5.817426620256E-03 -1.302171264969E-03  3.726313721193E-03
      2 T  20 CA   -5.764351925737E-03 -5.683127303389E-03  3.384769109391E-01
      3 T  20 CA   -2.665262119040E-03  1.233445635121E-04 -3.321531164102E-01
      4 T  20 CA   -8.494322112070E-04  3.374084401589E-01 -5.171489859896E-03
      5 T  20 CA   -4.241982219889E-03  3.382409970435E-01  3.339405299679E-01
      6 T  20 CA    9.004410300340E-04  3.363277822647E-01 -3.339771664041E-01
      7 T  20 CA   -4.621506285546E-03 -3.277501699102E-01 -1.085441137884E-04
      8 T  12 MG   -9.012308217468E-03 -3.291576712362E-01  3.343721799616E-01
      9 T  12 MG    6.523047136452E-03 -3.369830705315E-01 -3.442355485433E-01
     10 T  20 CA    3.404422581518E-01  4.460046154454E-03 -7.994981970688E-03
     11 T  20 CA    3.427411884599E-01 -1.764005329391E-03  3.324843746927E-01
     12 T  12 MG    3.426827196744E-01  7.239771886437E-03 -3.372557652369E-01
     13 T  20 CA    3.396927199223E-01  3.325497676399E-01 -2.204052749751E-03
     14 T  20 CA    3.338069167957E-01  3.270204745658E-01  3.404799070926E-01
     15 T  12 MG    3.292328598031E-01  3.306671172162E-01 -3.300176738194E-01
     16 T  20 CA    3.358878863235E-01 -3.307457162308E-01 -2.055438668230E-03
     17 T  20 CA    3.309953175985E-01 -3.370498632407E-01  3.382534845771E-01
     18 T  20 CA    3.327990495251E-01 -3.334673341712E-01 -3.347623421145E-01
     19 T  12 MG   -3.330157914859E-01 -2.267116935061E-03  9.693287357432E-03
     20 T  12 MG   -3.269068007156E-01 -1.269174686577E-02  3.279486129663E-01
     21 T  12 MG   -3.407841183600E-01  5.575893070121E-03 -3.299527431212E-01
     22 T  12 MG   -3.348667769854E-01  3.225548531806E-01  8.541872341631E-03
     23 T  20 CA   -3.376646898147E-01  3.302298718716E-01  3.367947914643E-01
     24 T  20 CA   -3.386836195048E-01  3.303673201809E-01 -3.289007533556E-01
     25 T  20 CA   -3.318117479179E-01 -3.304135979848E-01 -4.828743857010E-03
     26 T  12 MG   -3.240852535972E-01 -3.271708527841E-01  3.259582154493E-01
     27 T  20 CA   -3.300404979664E-01 -3.283989306576E-01 -3.392130462246E-01
     28 T   8 O    -1.783083390468E-01 -1.682432217064E-01  1.793820681785E-01
     29 T   8 O    -1.589262194169E-01 -1.746076455506E-01  4.944937357059E-01
     30 T   8 O    -1.766259824742E-01 -1.566232863380E-01 -1.711729372158E-01
     31 T   8 O    -1.816477627437E-01  1.648211545095E-01  1.686569458086E-01
     32 T   8 O    -1.736588683603E-01  1.602493314379E-01 -4.939514783401E-01
     33 T   8 O    -1.769823339560E-01  1.700234240038E-01 -1.555399538329E-01
     34 T   8 O    -1.714962712294E-01 -4.920290447221E-01  1.702087157668E-01
     35 T   8 O    -1.679740986052E-01 -4.873526188981E-01  4.863923606960E-01
     36 T   8 O    -1.653208887914E-01  4.995603264694E-01 -1.683915210514E-01
     37 T   8 O     1.630832079453E-01 -1.698005839746E-01  1.694625837238E-01
     38 T   8 O     1.634794549953E-01 -1.694744769067E-01 -4.972048671977E-01
     39 T   8 O     1.666366437693E-01 -1.653074306372E-01 -1.666279064809E-01
     40 T   8 O     1.689296298107E-01  1.700197515401E-01  1.644538909854E-01
     41 T   8 O     1.725001132737E-01  1.615582467960E-01 -4.944390511636E-01
     42 T   8 O     1.770541821917E-01  1.665761593986E-01 -1.762559828315E-01
     43 T   8 O     1.618598245565E-01 -4.929136158759E-01  1.722645922992E-01
     44 T   8 O     1.604231358432E-01 -4.945384863466E-01 -4.902015140107E-01
     45 T   8 O     1.663409721112E-01  4.987129579047E-01 -1.780596208198E-01
     46 T   8 O    -4.873105421065E-01 -1.666446461031E-01  1.671159933394E-01
     47 T   8 O    -4.935519319558E-01 -1.632092922836E-01  4.940372384742E-01
     48 T   8 O     4.992747691405E-01 -1.513425387685E-01 -1.816095495200E-01
     49 T   8 O    -4.801152604505E-01  1.582514879598E-01  1.603988467657E-01
     50 T   8 O     4.973681711763E-01  1.563465538942E-01 -4.840766857805E-01
     51 T   8 O    -4.964362267160E-01  1.626996473996E-01 -1.719232415295E-01
     52 T   8 O    -4.959444924757E-01  4.923288907278E-01  1.625380972524E-01
     53 T   8 O     4.972807475288E-01  4.974602574981E-01 -4.974937406118E-01
     54 T   8 O    -4.948044724879E-01  4.955583932176E-01 -1.602960926904E-01

 T = ATOM BELONGING TO THE ASYMMETRIC UNIT

 ****    1 SYMMOPS - TRANSLATORS IN FRACTIONAL UNITS
 **** MATRICES AND TRANSLATORS IN THE CRYSTALLOGRAPHIC REFERENCE FRAME
   V INV                    ROTATION MATRICES                   TRANSLATORS
   1   1  1.00  0.00  0.00  0.00  1.00  0.00  0.00  0.00  1.00  0.00  0.00  0.00

 DIRECT LATTICE VECTORS CARTESIAN COMPONENTS (ANGSTROM)
          X                    Y                    Z
  -0.106291364011E-01   0.700688297595E+01   0.701506377417E+01
   0.701451959814E+01   0.335662556146E-02   0.700643299183E+01
   0.701852262934E+01   0.700996497104E+01  -0.871302442099E-02


 CARTESIAN COORDINATES - PRIMITIVE CELL
 *******************************************************************************
 *      ATOM          X(ANGSTROM)         Y(ANGSTROM)         Z(ANGSTROM)
 *******************************************************************************
    1    20 CA    1.708094553900E-02 -1.464506979400E-02 -4.996566191700E-02
    2    20 CA    2.335804721170E+00  2.332302073683E+00 -8.320490460200E-02
    3    20 CA   -2.330330631638E+00 -2.347056476804E+00 -1.493872010600E-02
    4    20 CA    2.330470926194E+00 -4.107128107100E-02  2.358115865035E+00
    5    20 CA    4.716412357697E+00  2.312323692861E+00  2.337195473081E+00
    6    20 CA    1.514194909400E-02 -2.333730026265E+00  2.365684672186E+00
    7    20 CA   -2.299722686827E+00 -3.424337874900E-02 -2.328778819115E+00
    8    12 MG    3.801156897100E-02  2.279684220745E+00 -2.372356477131E+00
    9    12 MG   -4.779868674117E+00 -2.368504035132E+00 -2.312290378655E+00
   10    20 CA   -2.844648792200E-02  2.329409490084E+00  2.419542827352E+00
   11    20 CA    2.317532414886E+00  4.732245297485E+00  2.389094965467E+00
   12    12 MG   -2.319896119777E+00  3.701091525000E-02  2.457604627139E+00
   13    20 CA    2.313597028112E+00  2.365853048758E+00  4.712972961259E+00
   14    20 CA    4.680009381349E+00  4.726795909896E+00  4.629957241837E+00
   15    12 MG   -2.649985850005E-04 -5.406287123000E-03  4.629261959499E+00
   16    20 CA   -2.338018649467E+00  2.338008369918E+00  3.894515451200E-02
   17    20 CA    6.278670326000E-03  4.689259184031E+00 -4.251123066800E-02
   18    20 CA   -4.692187590957E+00 -1.590762229400E-02  1.106817029000E-03
   19    12 MG    5.566949077000E-02 -2.265460685118E+00 -2.352095875819E+00
   20    12 MG    2.216162991215E+00  8.267991096000E-03 -2.385053353468E+00
   21    12 MG   -2.273046342114E+00 -4.700772892604E+00 -2.348680316046E+00
   22    12 MG    2.326078008086E+00 -2.285411397103E+00 -8.922725694600E-02
   23    20 CA    4.683794857517E+00 -3.948818018999E-03 -5.794036540900E-02
   24    20 CA    1.257057614900E-02 -4.677590328321E+00 -5.832497825900E-02
   25    20 CA   -2.348056434260E+00 -2.359924487727E+00 -4.642659233570E+00
   26    12 MG   -3.756501078000E-03  1.303003608800E-02 -4.568619461056E+00
   27    20 CA   -4.680827130730E+00 -4.691529030574E+00 -4.613204671978E+00
   28     8 O     8.074699255200E-02  7.511619529000E-03 -2.431192189436E+00
   29     8 O     2.247515970883E+00  2.352220251946E+00 -2.342562869004E+00
   30     8 O    -2.298140863263E+00 -2.438039609308E+00 -2.334921657937E+00
   31     8 O     2.341794568095E+00 -8.995209124700E-02 -1.209317774630E-01
   32     8 O     4.677630920573E+00  2.331112939148E+00 -9.986104692000E-02
   33     8 O     1.028531234430E-01 -2.329853425835E+00 -4.892940886200E-02
   34     8 O     4.759608801662E+00 -6.792099731999E-03  2.354524147547E+00
   35     8 O     7.011516311563E+00  2.234339324046E+00  2.409242561486E+00
   36     8 O     2.324073217662E+00 -2.337125948270E+00  2.341866574146E+00
   37     8 O    -3.425979036000E-03  2.330061772240E+00 -4.713384099000E-02
   38     8 O     2.338359332422E+00  4.669488816316E+00 -4.497362998500E-02
   39     8 O    -2.330805147854E+00 -1.007200379000E-03  1.220308036300E-02
   40     8 O     2.345034658535E+00  2.337056855057E+00  2.374851232154E+00
   41     8 O     4.679710921078E+00  4.753194939657E+00  2.337641361227E+00
   42     8 O    -7.048680242800E-02  5.608803229000E-03  2.410686801104E+00
   43     8 O     4.764289888521E+00  2.343403706062E+00  4.686822817575E+00
   44     8 O     7.121896744554E+00  4.699432313600E+00  4.662418867496E+00
   45     8 O     2.246748278092E+00 -8.098598635200E-02  4.662642887159E+00
   46     8 O    -1.474201217001E-03  4.763272930194E+00  2.427508611368E+00
   47     8 O     2.317193653051E+00  7.011258249793E+00  2.404945967083E+00
   48     8 O    -2.341532796857E+00  2.224775299436E+00  2.443655358100E+00
   49     8 O     2.230295173664E+00  4.767693019218E+00  4.754405490336E+00
   50     8 O     4.712428828113E+00  7.102129728655E+00  4.580005840971E+00
   51     8 O    -7.073974392200E-02  2.323782651295E+00  4.673974132651E+00
   52     8 O     4.588870291693E+00  4.672896886544E+00  6.984034715420E+00
   53     8 O     7.011010613522E+00  7.008609067983E+00  6.969499768531E+00
   54     8 O     2.345692515134E+00  2.417839350466E+00  7.017472183311E+00
 WARNING **** CRYSTA **** TESTGEOM  DIRECTIVE - GEOMETRY EDITING COMPLETE
 TTTTTTTTTTTTTTTTTTTTTTTTTTTTTT END         TELAPSE        0.08 TCPU        0.01
 EEEEEEEEEE TERMINATION  DATE 10 03 2023 TIME 10:32:18.0
Fri 10 Mar 2023 10:32:18 GMT
Contents of temporary directory:
total 8
-rw-r--r--  1 brunocamino  admin  4027 10 Mar 10:32 fort.34
SCF abnormal end - no wf written in fort.9
geometry input file fort.34 saved as /Users/brunocamino/Desktop/Imperial/cmsg_icl/solid-solutions/./data/crystal/testgeom_opt/CaMgO_testgeom_3367.gui
temporary directory /Users/brunocamino/crystal/tmp removed
