date Fri 10 Mar 2023 10:32:28 GMT
hostname MacBook-Pro-8
system Darwin MacBook-Pro-8 21.6.0 Darwin Kernel Version 21.6.0: Mon Aug 22 20:20:05 PDT 2022; root:xnu-8020.140.49~2/RELEASE_ARM64_T8101 arm64
user brunocamino
output data in /Users/brunocamino/Desktop/Imperial/cmsg_icl/solid-solutions/./data/crystal/testgeom_opt/CaMgO_testgeom_3509.out
crystal executable in /Users/brunocamino/crystal
input data in /Users/brunocamino/Desktop/Imperial/cmsg_icl/solid-solutions/./data/crystal/testgeom_opt/CaMgO_testgeom_3509.d12
temporary directory /Users/brunocamino/crystal/tmp
external geometry input from /Users/brunocamino/Desktop/Imperial/cmsg_icl/solid-solutions/./data/crystal/testgeom_opt/CaMgO_testgeom_3509.gui
external geometry input saved in /Users/brunocamino/Desktop/Imperial/cmsg_icl/solid-solutions/./data/crystal/testgeom_opt/CaMgO_testgeom_3509_inp.gui
Bulk 
EXTERNAL
EXTPRT
TESTGEOM
END

         
 *******************************************************************************
 *                                                                             *
 *                               CRYSTAL17                                     *
 *                      public : 1.0.1 - Feb 1st, 2017                         *
 *                       HTTP://WWW.CRYSTAL.UNITO.IT                           *
 *                                                                             *
 *                              MAIN AUTHORS                                   *
 *                                                                             *
 *  R. DOVESI(1,11), V.R. SAUNDERS(2), C. ROETTI(1,11), R. ORLANDO(1,11),      *
 *  C.M. ZICOVICH-WILSON(1,3), F. PASCALE(4), B. CIVALLERI(1,11),              *
 *  K. DOLL(5), N.M. HARRISON(2,6), I.J. BUSH(7), Ph. D'ARCO(8),               *
 *  M. LLUNELL(9), M. CAUSA'(10), Y. NOEL(8), L. MASCHIO(1,11), A. ERBA(1,11)  *
 *  M. RE'RAT(14), S. CASASSA(1,11)                                            *
 *                                                                             *
 *        CONTRIBUTIONS TO THE CODE HAVE ALSO BEEN GIVEN BY                    *
 *                                                                             *
 *  M. FERRABONE(1,11), M. DE LA PIERRE(1,11), M. FERRERO(1,11),               *
 *  J. BAIMA(1,11), E. ALBANESE(1,11), M.F. PEINTINGER(12), R. BAST(13),       *
 *  B. KIRTMAN(15), V. LACIVITA(1,11), R. DEMICHELIS(1,16)                     *
 *  G. BRANDEBURG(17), S. SALUSTRO(1,11), G. SANSONE(1,11)                     *
 *  M.T. RUGGIERO(18)                                                          *
 *                                                                             *
 * (1) THEORETICAL CHEMISTRY GROUP - UNIVERSITA' DI TORINO - TORINO (ITALY)    *

 * (2) COMPUTATIONAL SCIENCE & ENGINEERING DEPARTMENT - STFC DARESBURY (UK)    *
 * (3) UNIVERSIDAD AUTONOMA DEL ESTADO DE MORELOS - CUERNAVACA (MEXICO)        *
 * (4) UNIVERSITE' DE LORRAINE - NANCY (FRANCE)                                *
 * (5) UNIVERSITAET STUTTGART- STUTTGART (GERMANY)                             *
 * (6) IMPERIAL COLLEGE - LONDON (UK)                                          *
 * (7) OXFORD E-RESEARCH CENTRE - OXFORD (UK)                                  *
 * (8) UPMC - SORBONNE UNIVERSITES - PARIS (FRANCE)                            *
 * (9) UNIVERSIDAD DE BARCELONA - BARCELONA (SPAIN)                            *
 *(10) UNIVERSITA' DI NAPOLI "FEDERICO II" - NAPOLI (ITALY)                    *
 *(11) NIS - NANOSTRUCTURED INTERFACES AND SURFACES - TORINO (ITALY)           *
 *(12) MPI FUER CHEMISCHE ENERGIEKONVERSION - MUELHEIM AN DER RUHR (GERMANY)   *
 *(13) UNIVERSITY OF TROMSO - TROMSO (NORWAY)                                  *
 *(14) UNIVERSITE' DE PAU ET DES PAYS DE L'ADOUR - PAU (FRANCE)                *
 *(15) UNIVERSITY OF CALIFORNIA SANTA BARBARA - SANTA BARBARA (USA)            *
 *(16) CURTIN UNIVERSITY - PERTH (AUSTRALIA)                                   *
 *(17) UNIVERSITY COLLEGE LONDON - LONDON (UK)                                 *
 *(18) CAMBRIDGE UNIVERSITY - CAMBRIDGE (UK)                                   *
 *                                                                             *
 *******************************************************************************
 EEEEEEEEEE STARTING  DATE 10 03 2023 TIME 10:32:29.0
 Bulk                                                                            

 GEOMETRY INPUT FROM EXTERNAL FILE (FORTRAN UNIT 34)
 3D - CRYSTAL 

 *******************************************************************************
 LATTICE PARAMETERS  (ANGSTROMS AND DEGREES) - PRIMITIVE CELL
       A          B          C        ALPHA      BETA     GAMMA        VOLUME
    9.91582    9.90384    9.91936    59.87558  60.14543  60.14858    689.684820
 INFORMATION **** CHKGRP **** SPGR WITH NO INVERSION

 NUMBER OF IRREDUCIBLE ATOMS IN THE CELL:   54

 CARTESIAN COORDINATES (ANGSTROM) - IRREDUCIBLE ATOMS AND SYMMETRY RELATED

 AT.IRR.  AT  AT.N.          X                   Y                   Z
     1     1    20   -2.099107176600E-02  6.788589012000E-03 -7.196958197600E-02
     2     2    20    2.345483553858E+00  2.340055505352E+00 -5.024273942200E-02
     3     3    20   -2.358882368766E+00 -2.314936145650E+00 -2.431040079600E-02
     4     4    20    2.368917759724E+00 -8.405517084000E-03  2.385807473727E+00
     5     5    20    4.699933672034E+00  2.291186018872E+00  2.360983721469E+00
     6     6    20    1.304963990000E-03 -2.334975075898E+00  2.336238489271E+00
     7     7    20   -2.346242951339E+00 -4.096487904000E-03 -2.331697226980E+00
     8     8    12    7.941050124000E-02  2.420244578587E+00 -2.367279544999E+00
     9     9    12   -4.697689613820E+00 -2.353734073381E+00 -2.313952999831E+00
    10    10    20   -3.290249723200E-02  2.358238883698E+00  2.349510491388E+00
    11    11    20    2.309849632849E+00  4.709519045125E+00  2.313994901002E+00
    12    12    12   -2.402899860459E+00 -3.641869584300E-02  2.304300297899E+00
    13    13    12    2.237568882172E+00  2.369768673388E+00  4.700839603604E+00
    14    14    20    4.680306802492E+00  4.667866472544E+00  4.662254055522E+00
    15    15    20    3.493144445000E-03  6.343479507000E-03  4.705668618863E+00
    16    16    20   -2.357080643589E+00  2.331027501406E+00  4.418104957100E-02
    17    17    20   -7.052122156000E-03  4.712669186476E+00  2.472893711200E-02
    18    18    12   -4.605860731602E+00  4.169154733800E-02 -2.536054593500E-02
    19    19    12    3.136954072600E-02 -2.393474118996E+00 -2.370641782273E+00
    20    20    20    2.339743602059E+00 -5.764825228000E-03 -2.366794051367E+00
    21    21    20   -2.342572566040E+00 -4.670425009034E+00 -2.393878190435E+00
    22    22    20    2.373119129612E+00 -2.348486530502E+00 -3.541726998000E-03
    23    23    12    4.741563655998E+00 -3.061272932400E-02  1.001954382410E-01
    24    24    20    8.780265335000E-03 -4.724618469713E+00  2.883309990000E-03
    25    25    12   -2.306563962481E+00 -2.253234226030E+00 -4.616250230407E+00
    26    26    12   -1.028467039350E-01 -6.114550647500E-02 -4.650987764087E+00
    27    27    20   -4.664993962758E+00 -4.702854981788E+00 -4.659457887634E+00
    28    28     8    8.767325546000E-03  1.048248057600E-02 -2.452179757098E+00
    29    29     8    2.246364289630E+00  2.439230948229E+00 -2.340124626511E+00
    30    30     8   -2.375560345910E+00 -2.344832546028E+00 -2.414870375295E+00
    31    31     8    2.414660954177E+00  2.853804360000E-03 -3.670028073300E-02
    32    32     8    4.677095049038E+00  2.227479985428E+00 -4.828872416000E-03
    33    33     8   -1.072120071000E-02 -2.333069191395E+00 -8.149404360300E-02
    34    34     8    4.759094732924E+00 -8.588491160700E-02  2.257811770389E+00
    35    35     8    7.022264549466E+00  2.233996349545E+00  2.433002965155E+00
    36    36     8    2.420944514646E+00 -2.326600976767E+00  2.346418218316E+00
    37    37     8    2.847405004000E-03  2.338749390089E+00 -6.850216786900E-02
    38    38     8    2.343806929339E+00  4.773685253842E+00 -7.564710406300E-02
    39    39     8   -2.443696214163E+00 -2.930978845000E-03  2.512212332600E-02
    40    40     8    2.342978776952E+00  2.334183132795E+00  2.423012383725E+00
    41    41     8    4.685088031579E+00  4.757906087867E+00  2.318108290321E+00
    42    42     8   -7.173014310100E-02  2.167864810000E-03  2.352781270829E+00
    43    43     8    4.693104793339E+00  2.351693136243E+00  4.686834705375E+00
    44    44     8    7.121582128624E+00  4.572496619442E+00  4.653468697938E+00
    45    45     8    2.324765511270E+00 -5.427504153000E-03  4.760893709330E+00
    46    46     8   -1.071236060160E-01  4.770897154764E+00  2.458358958854E+00
    47    47     8    2.473570967131E+00  6.999703122473E+00  2.303723862379E+00
    48    48     8   -2.336556281616E+00  2.307884453697E+00  2.323178101741E+00
    49    49     8    2.239678237855E+00  4.565920622307E+00  4.663511473376E+00
    50    50     8    4.681397448302E+00  6.996116263457E+00  4.635223736405E+00
    51    51     8    9.271339207800E-02  2.441112546883E+00  4.669741237294E+00
    52    52     8    4.676487918575E+00  4.797984034440E+00  7.063680033097E+00
    53    53     8    6.982424088998E+00  6.994243362711E+00  7.102035912804E+00
    54    54     8    2.317107388643E+00  2.228115929438E+00  6.913014564398E+00

 SYMMETRY CHANGED DURING OLD RUN :  INFORMATION ON SPACE GROUP LOST 
 NUMBER OF SYMMETRY OPERATORS         :    1
 *******************************************************************************
 LATTICE PARAMETERS (ANGSTROMS AND DEGREES) - BOHR = 0.5291772083 ANGSTROM
 PRIMITIVE CELL - CENTRING CODE 1/0 VOLUME=   689.684820 - DENSITY  3.291 g/cm^3
         A              B              C           ALPHA      BETA       GAMMA 
     9.91582416     9.90383963     9.91935954    59.875582  60.145433  60.148581
 *******************************************************************************
 ATOMS IN THE ASYMMETRIC UNIT   54 - ATOMS IN THE UNIT CELL:   54
     ATOM                 X/A                 Y/B                 Z/C    
 *******************************************************************************
      1 T  20 CA   -3.153219470518E-03 -7.134017265294E-03  4.130728320361E-03
      2 T  20 CA   -3.113913931025E-03 -3.830005972074E-03  3.374823805315E-01
      3 T  20 CA    5.447865819614E-04 -4.258164025208E-03 -3.313178139568E-01
      4 T  20 CA    1.338343416266E-03  3.400901226356E-01 -2.559088859874E-03
      5 T  20 CA   -1.823308410890E-03  3.399416971383E-01  3.291892222454E-01
      6 T  20 CA   -1.257704396551E-04  3.342323691056E-01 -3.335256114180E-01
      7 T  20 CA    1.640820320922E-05 -3.337074029214E-01 -5.854155771043E-04
      8 T  12 MG   -1.731024162719E-03 -3.368024379299E-01  3.475705703318E-01
      9 T  12 MG    5.557926232311E-04 -3.319451648829E-01 -3.368564606742E-01
     10 T  20 CA    3.377287134300E-01 -2.504376895727E-03 -1.536615319177E-03
     11 T  20 CA    3.366572751370E-01 -6.275693681671E-03  3.355024921997E-01
     12 T  12 MG    3.318914912374E-01 -3.355852359886E-03 -3.378491643951E-01
     13 T  12 MG    3.450129156790E-01  3.266856258000E-01 -7.206062117925E-03
     14 T  20 CA    3.328428832256E-01  3.336093698433E-01  3.333573174011E-01
     15 T  20 CA    3.353274839088E-01  3.368609002360E-01 -3.351995273312E-01
     16 T  20 CA    3.364110178766E-01 -3.311015406246E-01 -4.087941484577E-03
     17 T  20 CA    3.381314802428E-01 -3.353732086313E-01  3.344911833096E-01
     18 T  12 MG    3.277520958586E-01 -3.325923680219E-01 -3.225233607533E-01
     19 T  12 MG   -3.416361243110E-01  3.398627289870E-03  4.182383566074E-04
     20 T  20 CA   -3.348702986859E-01 -2.602046198017E-03  3.348075971349E-01
     21 T  20 CA   -3.372398173050E-01 -4.567824944241E-03 -3.293321037826E-01
     22 T  20 CA   -3.358983485703E-01  3.364011355006E-01  1.079196405786E-03
     23 T  12 MG   -3.312552644906E-01  3.468193000096E-01  3.276167998343E-01
     24 T  20 CA   -3.371391803685E-01  3.383276354143E-01 -3.371932681604E-01
     25 T  12 MG   -3.257911331635E-01 -3.338613435862E-01  4.592098827671E-03
     26 T  12 MG   -3.282941621801E-01 -3.361003874787E-01  3.203197441947E-01
     27 T  20 CA   -3.362231524092E-01 -3.298199183904E-01 -3.349689220603E-01
     28 T   8 O    -1.745111908089E-01 -1.757736290636E-01  1.764141282505E-01
     29 T   8 O    -1.520957454891E-01 -1.819922002236E-01 -4.990177566807E-01
     30 T   8 O    -1.706515790729E-01 -1.745445168152E-01 -1.639958890928E-01
     31 T   8 O    -1.736261751252E-01  1.690179571568E-01  1.744201663585E-01
     32 T   8 O    -1.732300119140E-01  1.734046812945E-01  4.918908553621E-01
     33 T   8 O    -1.713205883254E-01  1.600589735130E-01 -1.616609455496E-01
     34 T   8 O    -1.827788463678E-01 -4.934354124362E-01  1.708975637019E-01
     35 T   8 O    -1.654392647448E-01 -4.855347874560E-01  4.849967823099E-01
     36 T   8 O    -1.703728840037E-01 -4.934316837747E-01 -1.617035741948E-01
     37 T   8 O     1.616014564492E-01 -1.717692829661E-01  1.722143560631E-01
     38 T   8 O     1.686397090457E-01 -1.796118215321E-01 -4.869212244947E-01
     39 T   8 O     1.748549120061E-01 -1.719082138690E-01 -1.756625805974E-01
     40 T   8 O     1.727827023831E-01  1.735696315850E-01  1.603383190871E-01
     41 T   8 O     1.719781881913E-01  1.596074417520E-01 -4.925385423436E-01
     42 T   8 O     1.727984177564E-01  1.632690471368E-01 -1.728892929874E-01
     43 T   8 O     1.686130955995E-01 -4.982666401067E-01  1.670032455960E-01
     44 T   8 O     1.523172156335E-01 -4.864625368931E-01 -4.993426687012E-01
     45 T   8 O     1.738275300232E-01 -4.931382951004E-01 -1.750228609544E-01
     46 T   8 O    -4.773073273805E-01 -1.723346088295E-01  1.578226046476E-01
     47 T   8 O     4.875374824049E-01 -1.589553628823E-01 -4.884777818678E-01
     48 T   8 O     4.956093812653E-01 -1.647438603127E-01 -1.669630052318E-01
     49 T   8 O     4.987239519915E-01  1.672830415711E-01  1.525408562279E-01
     50 T   8 O     4.967740990120E-01  1.654356967364E-01 -4.982638016493E-01
     51 T   8 O     4.999676827643E-01  1.667130401371E-01 -1.523110287776E-01
     52 T   8 O    -4.865908134821E-01  4.960561434876E-01  1.709647513963E-01
     53 T   8 O    -4.908391353205E-01 -4.939702785149E-01  4.890369780995E-01
     54 T   8 O     4.868217679911E-01 -4.990775527627E-01 -1.695858671805E-01

 T = ATOM BELONGING TO THE ASYMMETRIC UNIT
 *******************************************************************************
 * GEOMETRY EDITING - INPUT COORDINATES ARE GIVEN IN ANGSTROM         
 *******************************************************************************

 GCALCO - MAX INDICES DIRECT LATTICE VECTOR    14    15    15
 NO.OF VECTORS CREATED 6999 STARS 3500 RMAX   198.51420 BOHR

 GEOMETRY FOR WAVE FUNCTION - DIMENSIONALITY OF THE SYSTEM    3
 (NON PERIODIC DIRECTION: LATTICE PARAMETER FORMALLY SET TO 500)
 *******************************************************************************
 LATTICE PARAMETERS (ANGSTROMS AND DEGREES) - BOHR = 0.5291772083 ANGSTROM
 PRIMITIVE CELL - CENTRING CODE 1/0 VOLUME=   689.684820 - DENSITY  3.291 g/cm^3
         A              B              C           ALPHA      BETA       GAMMA 
     9.91582416     9.90383963     9.91935954    59.875582  60.145433  60.148581
 *******************************************************************************
 ATOMS IN THE ASYMMETRIC UNIT   54 - ATOMS IN THE UNIT CELL:   54
     ATOM                 X/A                 Y/B                 Z/C    
 *******************************************************************************
      1 T  20 CA   -3.153219470518E-03 -7.134017265294E-03  4.130728320361E-03
      2 T  20 CA   -3.113913931025E-03 -3.830005972074E-03  3.374823805315E-01
      3 T  20 CA    5.447865819614E-04 -4.258164025208E-03 -3.313178139568E-01
      4 T  20 CA    1.338343416266E-03  3.400901226356E-01 -2.559088859874E-03
      5 T  20 CA   -1.823308410890E-03  3.399416971383E-01  3.291892222454E-01
      6 T  20 CA   -1.257704396550E-04  3.342323691056E-01 -3.335256114180E-01
      7 T  20 CA    1.640820320914E-05 -3.337074029214E-01 -5.854155771043E-04
      8 T  12 MG   -1.731024162719E-03 -3.368024379299E-01  3.475705703318E-01
      9 T  12 MG    5.557926232311E-04 -3.319451648829E-01 -3.368564606742E-01
     10 T  20 CA    3.377287134300E-01 -2.504376895727E-03 -1.536615319177E-03
     11 T  20 CA    3.366572751370E-01 -6.275693681671E-03  3.355024921997E-01
     12 T  12 MG    3.318914912374E-01 -3.355852359886E-03 -3.378491643951E-01
     13 T  12 MG    3.450129156790E-01  3.266856258000E-01 -7.206062117925E-03
     14 T  20 CA    3.328428832256E-01  3.336093698433E-01  3.333573174011E-01
     15 T  20 CA    3.353274839088E-01  3.368609002360E-01 -3.351995273312E-01
     16 T  20 CA    3.364110178766E-01 -3.311015406246E-01 -4.087941484577E-03
     17 T  20 CA    3.381314802428E-01 -3.353732086313E-01  3.344911833096E-01
     18 T  12 MG    3.277520958586E-01 -3.325923680219E-01 -3.225233607533E-01
     19 T  12 MG   -3.416361243110E-01  3.398627289870E-03  4.182383566073E-04
     20 T  20 CA   -3.348702986859E-01 -2.602046198017E-03  3.348075971349E-01
     21 T  20 CA   -3.372398173050E-01 -4.567824944241E-03 -3.293321037826E-01
     22 T  20 CA   -3.358983485703E-01  3.364011355006E-01  1.079196405786E-03
     23 T  12 MG   -3.312552644906E-01  3.468193000096E-01  3.276167998343E-01
     24 T  20 CA   -3.371391803685E-01  3.383276354143E-01 -3.371932681604E-01
     25 T  12 MG   -3.257911331635E-01 -3.338613435862E-01  4.592098827671E-03
     26 T  12 MG   -3.282941621801E-01 -3.361003874788E-01  3.203197441947E-01
     27 T  20 CA   -3.362231524092E-01 -3.298199183904E-01 -3.349689220603E-01
     28 T   8 O    -1.745111908089E-01 -1.757736290636E-01  1.764141282505E-01
     29 T   8 O    -1.520957454891E-01 -1.819922002236E-01 -4.990177566807E-01
     30 T   8 O    -1.706515790729E-01 -1.745445168152E-01 -1.639958890928E-01
     31 T   8 O    -1.736261751253E-01  1.690179571568E-01  1.744201663585E-01
     32 T   8 O    -1.732300119140E-01  1.734046812945E-01  4.918908553621E-01
     33 T   8 O    -1.713205883254E-01  1.600589735130E-01 -1.616609455496E-01
     34 T   8 O    -1.827788463678E-01 -4.934354124362E-01  1.708975637019E-01
     35 T   8 O    -1.654392647448E-01 -4.855347874560E-01  4.849967823099E-01
     36 T   8 O    -1.703728840037E-01 -4.934316837747E-01 -1.617035741948E-01
     37 T   8 O     1.616014564492E-01 -1.717692829661E-01  1.722143560631E-01
     38 T   8 O     1.686397090457E-01 -1.796118215321E-01 -4.869212244947E-01
     39 T   8 O     1.748549120061E-01 -1.719082138690E-01 -1.756625805974E-01
     40 T   8 O     1.727827023831E-01  1.735696315850E-01  1.603383190871E-01
     41 T   8 O     1.719781881913E-01  1.596074417520E-01 -4.925385423436E-01
     42 T   8 O     1.727984177564E-01  1.632690471368E-01 -1.728892929874E-01
     43 T   8 O     1.686130955995E-01 -4.982666401067E-01  1.670032455960E-01
     44 T   8 O     1.523172156335E-01 -4.864625368931E-01 -4.993426687012E-01
     45 T   8 O     1.738275300232E-01 -4.931382951004E-01 -1.750228609544E-01
     46 T   8 O    -4.773073273805E-01 -1.723346088295E-01  1.578226046476E-01
     47 T   8 O     4.875374824049E-01 -1.589553628823E-01 -4.884777818678E-01
     48 T   8 O     4.956093812653E-01 -1.647438603127E-01 -1.669630052318E-01
     49 T   8 O     4.987239519915E-01  1.672830415711E-01  1.525408562279E-01
     50 T   8 O     4.967740990120E-01  1.654356967364E-01 -4.982638016493E-01
     51 T   8 O     4.999676827643E-01  1.667130401371E-01 -1.523110287776E-01
     52 T   8 O    -4.865908134821E-01  4.960561434876E-01  1.709647513963E-01
     53 T   8 O    -4.908391353205E-01 -4.939702785149E-01  4.890369780995E-01
     54 T   8 O     4.868217679911E-01 -4.990775527627E-01 -1.695858671805E-01

 T = ATOM BELONGING TO THE ASYMMETRIC UNIT

 ****    1 SYMMOPS - TRANSLATORS IN FRACTIONAL UNITS
 **** MATRICES AND TRANSLATORS IN THE CRYSTALLOGRAPHIC REFERENCE FRAME
   V INV                    ROTATION MATRICES                   TRANSLATORS
   1   1  1.00  0.00  0.00  0.00  1.00  0.00  0.00  0.00  1.00  0.00  0.00  0.00

 DIRECT LATTICE VECTORS CARTESIAN COMPONENTS (ANGSTROM)
          X                    Y                    Z
  -0.133951246757E-01   0.701448761284E+01   0.700859136481E+01
   0.701850647888E+01   0.343120981162E-03   0.698760374385E+01
   0.702947146629E+01   0.699858560463E+01  -0.490699710667E-02


 CARTESIAN COORDINATES - PRIMITIVE CELL
 *******************************************************************************
 *      ATOM          X(ANGSTROM)         Y(ANGSTROM)         Z(ANGSTROM)
 *******************************************************************************
    1    20 CA   -2.099107176600E-02  6.788589012000E-03 -7.196958197600E-02
    2    20 CA    2.345483553858E+00  2.340055505352E+00 -5.024273942200E-02
    3    20 CA   -2.358882368766E+00 -2.314936145650E+00 -2.431040079600E-02
    4    20 CA    2.368917759724E+00 -8.405517084000E-03  2.385807473727E+00
    5    20 CA    4.699933672034E+00  2.291186018872E+00  2.360983721469E+00
    6    20 CA    1.304963990000E-03 -2.334975075898E+00  2.336238489271E+00
    7    20 CA   -2.346242951339E+00 -4.096487904000E-03 -2.331697226980E+00
    8    12 MG    7.941050124000E-02  2.420244578587E+00 -2.367279544999E+00
    9    12 MG   -4.697689613820E+00 -2.353734073381E+00 -2.313952999831E+00
   10    20 CA   -3.290249723200E-02  2.358238883698E+00  2.349510491388E+00
   11    20 CA    2.309849632849E+00  4.709519045125E+00  2.313994901002E+00
   12    12 MG   -2.402899860459E+00 -3.641869584300E-02  2.304300297899E+00
   13    12 MG    2.237568882172E+00  2.369768673388E+00  4.700839603604E+00
   14    20 CA    4.680306802492E+00  4.667866472544E+00  4.662254055522E+00
   15    20 CA    3.493144445000E-03  6.343479507000E-03  4.705668618863E+00
   16    20 CA   -2.357080643589E+00  2.331027501406E+00  4.418104957100E-02
   17    20 CA   -7.052122156000E-03  4.712669186476E+00  2.472893711200E-02
   18    12 MG   -4.605860731602E+00  4.169154733800E-02 -2.536054593500E-02
   19    12 MG    3.136954072600E-02 -2.393474118996E+00 -2.370641782273E+00
   20    20 CA    2.339743602059E+00 -5.764825228000E-03 -2.366794051367E+00
   21    20 CA   -2.342572566040E+00 -4.670425009034E+00 -2.393878190435E+00
   22    20 CA    2.373119129612E+00 -2.348486530502E+00 -3.541726998000E-03
   23    12 MG    4.741563655998E+00 -3.061272932400E-02  1.001954382410E-01
   24    20 CA    8.780265335000E-03 -4.724618469713E+00  2.883309990001E-03
   25    12 MG   -2.306563962481E+00 -2.253234226030E+00 -4.616250230407E+00
   26    12 MG   -1.028467039350E-01 -6.114550647500E-02 -4.650987764087E+00
   27    20 CA   -4.664993962758E+00 -4.702854981788E+00 -4.659457887634E+00
   28     8 O     8.767325546000E-03  1.048248057600E-02 -2.452179757098E+00
   29     8 O     2.246364289630E+00  2.439230948229E+00 -2.340124626511E+00
   30     8 O    -2.375560345910E+00 -2.344832546028E+00 -2.414870375295E+00
   31     8 O     2.414660954177E+00  2.853804360000E-03 -3.670028073300E-02
   32     8 O     4.677095049038E+00  2.227479985428E+00 -4.828872416000E-03
   33     8 O    -1.072120071000E-02 -2.333069191395E+00 -8.149404360300E-02
   34     8 O     4.759094732924E+00 -8.588491160700E-02  2.257811770389E+00
   35     8 O     7.022264549466E+00  2.233996349545E+00  2.433002965155E+00
   36     8 O     2.420944514646E+00 -2.326600976767E+00  2.346418218316E+00
   37     8 O     2.847405004000E-03  2.338749390089E+00 -6.850216786900E-02
   38     8 O     2.343806929339E+00  4.773685253842E+00 -7.564710406300E-02
   39     8 O    -2.443696214163E+00 -2.930978845000E-03  2.512212332600E-02
   40     8 O     2.342978776952E+00  2.334183132795E+00  2.423012383725E+00
   41     8 O     4.685088031579E+00  4.757906087867E+00  2.318108290321E+00
   42     8 O    -7.173014310100E-02  2.167864810000E-03  2.352781270829E+00
   43     8 O     4.693104793339E+00  2.351693136243E+00  4.686834705375E+00
   44     8 O     7.121582128624E+00  4.572496619442E+00  4.653468697938E+00
   45     8 O     2.324765511270E+00 -5.427504153000E-03  4.760893709330E+00
   46     8 O    -1.071236060160E-01  4.770897154764E+00  2.458358958854E+00
   47     8 O     2.473570967131E+00  6.999703122473E+00  2.303723862379E+00
   48     8 O    -2.336556281616E+00  2.307884453697E+00  2.323178101741E+00
   49     8 O     2.239678237855E+00  4.565920622307E+00  4.663511473376E+00
   50     8 O     4.681397448302E+00  6.996116263457E+00  4.635223736405E+00
   51     8 O     9.271339207800E-02  2.441112546883E+00  4.669741237294E+00
   52     8 O     4.676487918575E+00  4.797984034440E+00  7.063680033097E+00
   53     8 O     6.982424088998E+00  6.994243362711E+00  7.102035912804E+00
   54     8 O     2.317107388643E+00  2.228115929438E+00  6.913014564398E+00
 WARNING **** CRYSTA **** TESTGEOM  DIRECTIVE - GEOMETRY EDITING COMPLETE
 TTTTTTTTTTTTTTTTTTTTTTTTTTTTTT END         TELAPSE        0.01 TCPU        0.01
 EEEEEEEEEE TERMINATION  DATE 10 03 2023 TIME 10:32:29.0
Fri 10 Mar 2023 10:32:29 GMT
Contents of temporary directory:
total 8
-rw-r--r--  1 brunocamino  admin  4027 10 Mar 10:32 fort.34
SCF abnormal end - no wf written in fort.9
geometry input file fort.34 saved as /Users/brunocamino/Desktop/Imperial/cmsg_icl/solid-solutions/./data/crystal/testgeom_opt/CaMgO_testgeom_3509.gui
temporary directory /Users/brunocamino/crystal/tmp removed
