date Fri 10 Mar 2023 10:27:47 GMT
hostname MacBook-Pro-8
system Darwin MacBook-Pro-8 21.6.0 Darwin Kernel Version 21.6.0: Mon Aug 22 20:20:05 PDT 2022; root:xnu-8020.140.49~2/RELEASE_ARM64_T8101 arm64
user brunocamino
output data in /Users/brunocamino/Desktop/Imperial/cmsg_icl/solid-solutions/./data/crystal/testgeom_opt/CaMgO_testgeom_52.out
crystal executable in /Users/brunocamino/crystal
input data in /Users/brunocamino/Desktop/Imperial/cmsg_icl/solid-solutions/./data/crystal/testgeom_opt/CaMgO_testgeom_52.d12
temporary directory /Users/brunocamino/crystal/tmp
external geometry input from /Users/brunocamino/Desktop/Imperial/cmsg_icl/solid-solutions/./data/crystal/testgeom_opt/CaMgO_testgeom_52.gui
external geometry input saved in /Users/brunocamino/Desktop/Imperial/cmsg_icl/solid-solutions/./data/crystal/testgeom_opt/CaMgO_testgeom_52_inp.gui
Bulk 
EXTERNAL
EXTPRT
TESTGEOM
END

         
 *******************************************************************************
 *                                                                             *
 *                               CRYSTAL17                                     *
 *                      public : 1.0.1 - Feb 1st, 2017                         *
 *                       HTTP://WWW.CRYSTAL.UNITO.IT                           *
 *                                                                             *
 *                              MAIN AUTHORS                                   *
 *                                                                             *
 *  R. DOVESI(1,11), V.R. SAUNDERS(2), C. ROETTI(1,11), R. ORLANDO(1,11),      *
 *  C.M. ZICOVICH-WILSON(1,3), F. PASCALE(4), B. CIVALLERI(1,11),              *
 *  K. DOLL(5), N.M. HARRISON(2,6), I.J. BUSH(7), Ph. D'ARCO(8),               *
 *  M. LLUNELL(9), M. CAUSA'(10), Y. NOEL(8), L. MASCHIO(1,11), A. ERBA(1,11)  *
 *  M. RE'RAT(14), S. CASASSA(1,11)                                            *
 *                                                                             *
 *        CONTRIBUTIONS TO THE CODE HAVE ALSO BEEN GIVEN BY                    *
 *                                                                             *
 *  M. FERRABONE(1,11), M. DE LA PIERRE(1,11), M. FERRERO(1,11),               *
 *  J. BAIMA(1,11), E. ALBANESE(1,11), M.F. PEINTINGER(12), R. BAST(13),       *
 *  B. KIRTMAN(15), V. LACIVITA(1,11), R. DEMICHELIS(1,16)                     *
 *  G. BRANDEBURG(17), S. SALUSTRO(1,11), G. SANSONE(1,11)                     *
 *  M.T. RUGGIERO(18)                                                          *
 *                                                                             *
 * (1) THEORETICAL CHEMISTRY GROUP - UNIVERSITA' DI TORINO - TORINO (ITALY)    *

 * (2) COMPUTATIONAL SCIENCE & ENGINEERING DEPARTMENT - STFC DARESBURY (UK)    *
 * (3) UNIVERSIDAD AUTONOMA DEL ESTADO DE MORELOS - CUERNAVACA (MEXICO)        *
 * (4) UNIVERSITE' DE LORRAINE - NANCY (FRANCE)                                *
 * (5) UNIVERSITAET STUTTGART- STUTTGART (GERMANY)                             *
 * (6) IMPERIAL COLLEGE - LONDON (UK)                                          *
 * (7) OXFORD E-RESEARCH CENTRE - OXFORD (UK)                                  *
 * (8) UPMC - SORBONNE UNIVERSITES - PARIS (FRANCE)                            *
 * (9) UNIVERSIDAD DE BARCELONA - BARCELONA (SPAIN)                            *
 *(10) UNIVERSITA' DI NAPOLI "FEDERICO II" - NAPOLI (ITALY)                    *
 *(11) NIS - NANOSTRUCTURED INTERFACES AND SURFACES - TORINO (ITALY)           *
 *(12) MPI FUER CHEMISCHE ENERGIEKONVERSION - MUELHEIM AN DER RUHR (GERMANY)   *
 *(13) UNIVERSITY OF TROMSO - TROMSO (NORWAY)                                  *
 *(14) UNIVERSITE' DE PAU ET DES PAYS DE L'ADOUR - PAU (FRANCE)                *
 *(15) UNIVERSITY OF CALIFORNIA SANTA BARBARA - SANTA BARBARA (USA)            *
 *(16) CURTIN UNIVERSITY - PERTH (AUSTRALIA)                                   *
 *(17) UNIVERSITY COLLEGE LONDON - LONDON (UK)                                 *
 *(18) CAMBRIDGE UNIVERSITY - CAMBRIDGE (UK)                                   *
 *                                                                             *
 *******************************************************************************
 EEEEEEEEEE STARTING  DATE 10 03 2023 TIME 10:27:47.5
 Bulk                                                                            

 GEOMETRY INPUT FROM EXTERNAL FILE (FORTRAN UNIT 34)
 3D - CRYSTAL 

 *******************************************************************************
 LATTICE PARAMETERS  (ANGSTROMS AND DEGREES) - PRIMITIVE CELL
       A          B          C        ALPHA      BETA     GAMMA        VOLUME
    9.89615    9.90949    9.90949    59.93227  60.02682  60.02682    687.079628
 INFORMATION **** CHKGRP **** SPGR WITH NO INVERSION

 NUMBER OF IRREDUCIBLE ATOMS IN THE CELL:   36

 CARTESIAN COORDINATES (ANGSTROM) - IRREDUCIBLE ATOMS AND SYMMETRY RELATED

 AT.IRR.  AT  AT.N.          X                   Y                   Z
     1     1    20    5.390286918000E-03 -7.250982010000E-04 -7.250982010000E-04
     2     2    20    2.351001922115E+00  2.323165354671E+00 -1.316820582100E-02
     3     3    20   -2.326523030298E+00 -2.345676673333E+00  1.097941330000E-04
     2     4    20    2.351001922115E+00 -1.316820582100E-02  2.323165354671E+00
     5     5    20    4.730782368400E+00  2.296084842884E+00  2.296084842884E+00
     6     6    20    3.254482352100E-02 -2.364744979030E+00  2.318552892933E+00
     3     7    20   -2.326523030298E+00  1.097941330000E-04 -2.345676673333E+00
     6     8    20    3.254482352100E-02  2.318552892933E+00 -2.364744979030E+00
     9     9    20   -4.695001997049E+00 -2.340646889991E+00 -2.340646889991E+00
    10    10    20   -1.621447245400E-02  2.344067406767E+00  2.344067406767E+00
    11    11    20    2.315625092256E+00  4.741335827084E+00  2.330460188495E+00
    12    12    20   -2.400946155632E+00  1.825624276600E-02  2.380503325229E+00
    11    13    20    2.315625092256E+00  2.330460188495E+00  4.741335827084E+00
    14    14    20    4.685264849307E+00  4.721692422067E+00  4.721692422067E+00
    15    15    12    6.544032123900E-02 -2.958361453000E-03  4.782824837295E+00
    12    16    20   -2.400946155632E+00  2.380503325229E+00  1.825624276600E-02
    15    17    12    6.544032123900E-02  4.782824837295E+00 -2.958361453000E-03
    18    18    12   -4.760317224659E+00  8.262988665000E-03  8.262988665000E-03
    19    19    20    3.025120994400E-02 -2.326286066552E+00 -2.326286066552E+00
    20    20    12    2.319818576402E+00  2.189306705000E-03 -2.235024898695E+00
    21    21    20   -2.339902055477E+00 -4.730503071423E+00 -2.318781377181E+00
    20    22    12    2.319818576402E+00 -2.235024898695E+00  2.189306705000E-03
    23    23    12    4.731811410912E+00 -3.492006878900E-02 -3.492006878900E-02
    24    24    12    5.964770341300E-02 -4.768557650237E+00  1.901062365300E-02
    21    25    20   -2.339902055477E+00 -2.318781377181E+00 -4.730503071423E+00
    24    26    12    5.964770341300E-02  1.901062365300E-02 -4.768557650237E+00
    27    27    12   -4.752885155825E+00 -4.770757208293E+00 -4.770757208293E+00
    28    28     8    9.553928397900E-02 -3.318540917000E-03 -2.382017970255E+00
    29    29     8    2.329776897140E+00  2.215093043241E+00 -2.394749946314E+00
    30    30     8   -2.334121756321E+00 -2.334768017776E+00 -2.334768017776E+00
    31    31     8    2.366297072041E+00 -6.119635205000E-02 -6.119635205000E-02
    32    32     8    4.768653167790E+00  2.237875226926E+00  2.672469984000E-03
    28    33     8    9.553928397900E-02 -2.382017970255E+00 -3.318540917000E-03
    32    34     8    4.768653167790E+00  2.672469984000E-03  2.237875226926E+00
    35    35     8    7.109683517492E+00  2.223972830200E+00  2.223972830200E+00
    29    36     8    2.329776897140E+00 -2.394749946314E+00  2.215093043241E+00
    37    37     8   -2.881281151000E-03  2.415960865310E+00  8.517921730000E-04
    38    38     8    2.257973511278E+00  4.755611650334E+00 -4.773352629000E-03
    39    39     8   -2.399229235220E+00 -5.125532420000E-04 -5.125532420000E-04
    40    40     8    2.334732732722E+00  2.343665094875E+00  2.343665094875E+00
    41    41     8    4.683521782713E+00  4.661830041927E+00  2.329194924912E+00
    37    42     8   -2.881281151000E-03  8.517921730000E-04  2.415960865310E+00
    41    43     8    4.683521782713E+00  2.329194924912E+00  4.661830041927E+00
    44    44     8    7.026018216580E+00  4.783126452676E+00  4.783126452676E+00
    38    45     8    2.257973511278E+00 -4.773352629000E-03  4.755611650334E+00
    46    46     8    8.685381883000E-03  4.770509041333E+00  2.211831615577E+00
    47    47     8    2.228637339895E+00  7.082627931239E+00  2.240152393334E+00
    48    48     8   -2.415953915742E+00  2.325713886835E+00  2.325713886835E+00
    49    49     8    2.335761038681E+00  4.775850007284E+00  4.775850007284E+00
    50    50     8    4.615332371911E+00  6.996331061880E+00  4.785378965538E+00
    46    51     8    8.685381883000E-03  2.211831615577E+00  4.770509041333E+00
    50    52     8    4.615332371911E+00  4.785378965538E+00  6.996331061880E+00
    53    53     8    7.032665735577E+00  6.976204993397E+00  6.976204993397E+00
    47    54     8    2.228637339895E+00  2.240152393334E+00  7.082627931239E+00

 SYMMETRY CHANGED DURING OLD RUN :  INFORMATION ON SPACE GROUP LOST 
 NUMBER OF SYMMETRY OPERATORS         :    2
 *******************************************************************************
 LATTICE PARAMETERS (ANGSTROMS AND DEGREES) - BOHR = 0.5291772083 ANGSTROM
 PRIMITIVE CELL - CENTRING CODE 1/0 VOLUME=   687.079628 - DENSITY  3.304 g/cm^3
         A              B              C           ALPHA      BETA       GAMMA 
     9.89614841     9.90949357     9.90949357    59.932272  60.026817  60.026817
 *******************************************************************************
 ATOMS IN THE ASYMMETRIC UNIT   36 - ATOMS IN THE UNIT CELL:   54
     ATOM                 X/A                 Y/B                 Z/C    
 *******************************************************************************
      1 T  20 CA   -4.880144291007E-04  3.842940949101E-04  3.842940949101E-04
      2 T  20 CA   -2.570859858402E-03  6.994613159684E-04  3.344663700781E-01
      3 T  20 CA   -1.716626730532E-03  1.721235219710E-03 -3.333961089396E-01
      4 F  20 CA   -2.570859858402E-03  3.344663700781E-01  6.994613159685E-04
      5 T  20 CA   -9.182325623294E-03  3.372177597634E-01  3.372177597634E-01
      6 T  20 CA   -5.621766532264E-03  3.368468724897E-01 -3.322056463673E-01
      7 F  20 CA   -1.716626730532E-03 -3.333961089396E-01  1.721235219710E-03
      8 F  20 CA   -5.621766532264E-03 -3.322056463673E-01  3.368468724897E-01
      9 T  20 CA    2.618013290842E-04 -3.346660580550E-01 -3.346660580550E-01
     10 T  20 CA    3.361824365050E-01 -1.202105176426E-03 -1.202105176426E-03
     11 T  20 CA    3.402422612626E-01 -7.193989296276E-03  3.372219463856E-01
     12 T  20 CA    3.426322493026E-01 -2.455409952705E-03 -3.399243055671E-01
     13 F  20 CA    3.402422612626E-01  3.372219463856E-01 -7.193989296276E-03
     14 T  20 CA    3.407438433304E-01  3.339250007537E-01  3.339250007537E-01
     15 T  12 MG    3.369150397646E-01  3.464650057556E-01 -3.372284921522E-01
     16 F  20 CA    3.426322493026E-01 -3.399243055671E-01 -2.455409952705E-03
     17 F  12 MG    3.369150397646E-01 -3.372284921522E-01  3.464650057556E-01
     18 T  12 MG    3.406377082169E-01 -3.393687084669E-01 -3.393687084669E-01
     19 T  20 CA   -3.346419910949E-01  2.202450371724E-03  2.202450371724E-03
     20 T  12 MG   -3.249897125794E-01  5.601149802185E-03  3.252079397752E-01
     21 T  20 CA   -3.369023441229E-01  5.523468193122E-03 -3.390133343824E-01
     22 F  12 MG   -3.249897125794E-01  3.252079397752E-01  5.601149802185E-03
     23 T  12 MG   -3.424149348293E-01  3.373370207848E-01  3.373370207848E-01
     24 T  12 MG   -3.436683214061E-01  3.462733715234E-01 -3.376751409174E-01
     25 F  20 CA   -3.369023441229E-01 -3.390133343824E-01  5.523468193122E-03
     26 F  12 MG   -3.436683214061E-01 -3.376751409174E-01  3.462733715234E-01
     27 T  12 MG   -3.429344525783E-01 -3.387447648450E-01 -3.387447648450E-01
     28 T   8 O    -1.772751664763E-01 -1.630750417786E-01  1.767442241131E-01
     29 T   8 O    -1.789744004260E-01 -1.631851332963E-01  4.953736746244E-01
     30 T   8 O    -1.672515850349E-01 -1.663562784441E-01 -1.663562784441E-01
     31 T   8 O    -1.774863954386E-01  1.686972725747E-01  1.686972725747E-01
     32 T   8 O    -1.799358440662E-01  1.802810477719E-01  4.996004836851E-01
     33 F   8 O    -1.772751664763E-01  1.767442241131E-01 -1.630750417786E-01
     34 F   8 O    -1.799358440662E-01  4.996004836851E-01  1.802810477719E-01
     35 T   8 O    -1.891276362617E-01 -4.931861934266E-01 -4.931861934266E-01
     36 F   8 O    -1.789744004260E-01  4.953736746244E-01 -1.631851332963E-01
     37 T   8 O     1.729171200091E-01 -1.727395649128E-01  1.722811561415E-01
     38 T   8 O     1.784917614018E-01 -1.791057839617E-01 -4.990406537831E-01
     39 T   8 O     1.710150230097E-01 -1.710438296516E-01 -1.710438296516E-01
     40 T   8 O     1.684796325865E-01  1.663996604709E-01  1.663996604709E-01
     41 T   8 O     1.656161882239E-01  1.672056040806E-01 -4.995558440954E-01
     42 F   8 O     1.729171200091E-01  1.722811561415E-01 -1.727395649128E-01
     43 F   8 O     1.656161882239E-01 -4.995558440954E-01  1.672056040806E-01
     44 T   8 O     1.826059273531E-01 -4.992011817549E-01 -4.992011817549E-01
     45 F   8 O     1.784917614018E-01 -4.990406537831E-01 -1.791057839617E-01
     46 T   8 O     4.983566938104E-01 -1.822149486300E-01  1.833158425873E-01
     47 T   8 O    -4.926935336606E-01 -1.871059033151E-01 -4.953133791763E-01
     48 T   8 O    -4.953160805635E-01 -1.722819568508E-01 -1.722819568508E-01
     49 T   8 O    -4.839733002150E-01  1.664250778957E-01  1.664250778957E-01
     50 T   8 O    -4.871665540551E-01  1.709889093130E-01  4.868439135367E-01
     51 F   8 O     4.983566938104E-01  1.833158425873E-01 -1.822149486300E-01
     52 F   8 O    -4.871665540551E-01  4.868439135367E-01  1.709889093130E-01
     53 T   8 O     4.955779760129E-01 -4.987704559046E-01 -4.987704559046E-01
     54 F   8 O    -4.926935336606E-01 -4.953133791763E-01 -1.871059033151E-01

 T = ATOM BELONGING TO THE ASYMMETRIC UNIT
 *******************************************************************************
 * GEOMETRY EDITING - INPUT COORDINATES ARE GIVEN IN ANGSTROM         
 *******************************************************************************

 GEOMETRY NOW FULLY CONSISTENT WITH THE GROUP

 GCALCO - MAX INDICES DIRECT LATTICE VECTOR    14    14    14
 NO.OF VECTORS CREATED 6999 STARS 1817 RMAX   198.16954 BOHR

 GEOMETRY FOR WAVE FUNCTION - DIMENSIONALITY OF THE SYSTEM    3
 (NON PERIODIC DIRECTION: LATTICE PARAMETER FORMALLY SET TO 500)
 *******************************************************************************
 LATTICE PARAMETERS (ANGSTROMS AND DEGREES) - BOHR = 0.5291772083 ANGSTROM
 PRIMITIVE CELL - CENTRING CODE 1/0 VOLUME=   687.079628 - DENSITY  3.304 g/cm^3
         A              B              C           ALPHA      BETA       GAMMA 
     9.89614841     9.90949357     9.90949357    59.932272  60.026817  60.026817
 *******************************************************************************
 ATOMS IN THE ASYMMETRIC UNIT   36 - ATOMS IN THE UNIT CELL:   54
     ATOM                 X/A                 Y/B                 Z/C    
 *******************************************************************************
      1 T  20 CA   -4.880144291007E-04  3.842940949101E-04  3.842940949101E-04
      2 T  20 CA   -2.570859858402E-03  6.994613159685E-04  3.344663700781E-01
      3 T  20 CA   -1.716626730533E-03  1.721235219710E-03 -3.333961089396E-01
      4 F  20 CA   -2.570859858402E-03  3.344663700781E-01  6.994613159685E-04
      5 T  20 CA   -9.182325623294E-03  3.372177597634E-01  3.372177597634E-01
      6 T  20 CA   -5.621766532264E-03  3.368468724897E-01 -3.322056463673E-01
      7 F  20 CA   -1.716626730533E-03 -3.333961089396E-01  1.721235219710E-03
      8 F  20 CA   -5.621766532264E-03 -3.322056463673E-01  3.368468724897E-01
      9 T  20 CA    2.618013290841E-04 -3.346660580550E-01 -3.346660580550E-01
     10 T  20 CA    3.361824365050E-01 -1.202105176426E-03 -1.202105176426E-03
     11 T  20 CA    3.402422612626E-01 -7.193989296276E-03  3.372219463856E-01
     12 T  20 CA    3.426322493026E-01 -2.455409952705E-03 -3.399243055671E-01
     13 F  20 CA    3.402422612626E-01  3.372219463856E-01 -7.193989296276E-03
     14 T  20 CA    3.407438433304E-01  3.339250007537E-01  3.339250007537E-01
     15 T  12 MG    3.369150397646E-01  3.464650057556E-01 -3.372284921522E-01
     16 F  20 CA    3.426322493026E-01 -3.399243055671E-01 -2.455409952705E-03
     17 F  12 MG    3.369150397646E-01 -3.372284921522E-01  3.464650057556E-01
     18 T  12 MG    3.406377082169E-01 -3.393687084669E-01 -3.393687084669E-01
     19 T  20 CA   -3.346419910949E-01  2.202450371724E-03  2.202450371724E-03
     20 T  12 MG   -3.249897125794E-01  5.601149802185E-03  3.252079397752E-01
     21 T  20 CA   -3.369023441229E-01  5.523468193122E-03 -3.390133343824E-01
     22 F  12 MG   -3.249897125794E-01  3.252079397752E-01  5.601149802185E-03
     23 T  12 MG   -3.424149348293E-01  3.373370207848E-01  3.373370207848E-01
     24 T  12 MG   -3.436683214061E-01  3.462733715234E-01 -3.376751409174E-01
     25 F  20 CA   -3.369023441229E-01 -3.390133343824E-01  5.523468193122E-03
     26 F  12 MG   -3.436683214061E-01 -3.376751409174E-01  3.462733715234E-01
     27 T  12 MG   -3.429344525783E-01 -3.387447648450E-01 -3.387447648450E-01
     28 T   8 O    -1.772751664763E-01 -1.630750417786E-01  1.767442241131E-01
     29 T   8 O    -1.789744004260E-01 -1.631851332963E-01  4.953736746244E-01
     30 T   8 O    -1.672515850349E-01 -1.663562784441E-01 -1.663562784441E-01
     31 T   8 O    -1.774863954386E-01  1.686972725747E-01  1.686972725747E-01
     32 T   8 O    -1.799358440662E-01  1.802810477719E-01  4.996004836851E-01
     33 F   8 O    -1.772751664763E-01  1.767442241131E-01 -1.630750417786E-01
     34 F   8 O    -1.799358440662E-01  4.996004836851E-01  1.802810477719E-01
     35 T   8 O    -1.891276362617E-01 -4.931861934266E-01 -4.931861934266E-01
     36 F   8 O    -1.789744004260E-01  4.953736746244E-01 -1.631851332963E-01
     37 T   8 O     1.729171200091E-01 -1.727395649128E-01  1.722811561415E-01
     38 T   8 O     1.784917614018E-01 -1.791057839617E-01 -4.990406537831E-01
     39 T   8 O     1.710150230097E-01 -1.710438296516E-01 -1.710438296516E-01
     40 T   8 O     1.684796325865E-01  1.663996604709E-01  1.663996604709E-01
     41 T   8 O     1.656161882239E-01  1.672056040806E-01 -4.995558440954E-01
     42 F   8 O     1.729171200091E-01  1.722811561415E-01 -1.727395649128E-01
     43 F   8 O     1.656161882239E-01 -4.995558440954E-01  1.672056040806E-01
     44 T   8 O     1.826059273531E-01 -4.992011817549E-01 -4.992011817549E-01
     45 F   8 O     1.784917614018E-01 -4.990406537831E-01 -1.791057839617E-01
     46 T   8 O     4.983566938104E-01 -1.822149486300E-01  1.833158425873E-01
     47 T   8 O    -4.926935336606E-01 -1.871059033151E-01 -4.953133791763E-01
     48 T   8 O    -4.953160805635E-01 -1.722819568508E-01 -1.722819568508E-01
     49 T   8 O    -4.839733002150E-01  1.664250778957E-01  1.664250778957E-01
     50 T   8 O    -4.871665540551E-01  1.709889093130E-01  4.868439135367E-01
     51 F   8 O     4.983566938104E-01  1.833158425873E-01 -1.822149486300E-01
     52 F   8 O    -4.871665540551E-01  4.868439135367E-01  1.709889093130E-01
     53 T   8 O     4.955779760129E-01 -4.987704559046E-01 -4.987704559046E-01
     54 F   8 O    -4.926935336606E-01 -4.953133791763E-01 -1.871059033151E-01

 T = ATOM BELONGING TO THE ASYMMETRIC UNIT

 ****    2 SYMMOPS - TRANSLATORS IN FRACTIONAL UNITS
 **** MATRICES AND TRANSLATORS IN THE CRYSTALLOGRAPHIC REFERENCE FRAME
   V INV                    ROTATION MATRICES                   TRANSLATORS
   1   1  1.00  0.00  0.00  0.00  1.00  0.00  0.00  0.00  1.00  0.00  0.00  0.00
   2   2  1.00  0.00  0.00 -0.00 -0.00  1.00 -0.00  1.00  0.00  0.00  0.00  0.00

 DIRECT LATTICE VECTORS CARTESIAN COMPONENTS (ANGSTROM)
          X                    Y                    Z
   0.193276556518E-02   0.699763351185E+01   0.699763351185E+01
   0.701445872691E+01  -0.222060233231E-03   0.699967367286E+01
   0.701445872691E+01   0.699967367286E+01  -0.222060233231E-03


 CARTESIAN COORDINATES - PRIMITIVE CELL
 *******************************************************************************
 *      ATOM          X(ANGSTROM)         Y(ANGSTROM)         Z(ANGSTROM)
 *******************************************************************************
    1    20 CA    5.390286918000E-03 -7.250982010000E-04 -7.250982010000E-04
    2    20 CA    2.351001922115E+00  2.323165354671E+00 -1.316820582100E-02
    3    20 CA   -2.326523030298E+00 -2.345676673333E+00  1.097941329997E-04
    4    20 CA    2.351001922115E+00 -1.316820582100E-02  2.323165354671E+00
    5    20 CA    4.730782368400E+00  2.296084842884E+00  2.296084842884E+00
    6    20 CA    3.254482352100E-02 -2.364744979030E+00  2.318552892933E+00
    7    20 CA   -2.326523030298E+00  1.097941329996E-04 -2.345676673333E+00
    8    20 CA    3.254482352100E-02  2.318552892933E+00 -2.364744979030E+00
    9    20 CA   -4.695001997049E+00 -2.340646889991E+00 -2.340646889991E+00
   10    20 CA   -1.621447245400E-02  2.344067406767E+00  2.344067406767E+00
   11    20 CA    2.315625092256E+00  4.741335827084E+00  2.330460188495E+00
   12    20 CA   -2.400946155632E+00  1.825624276600E-02  2.380503325229E+00
   13    20 CA    2.315625092256E+00  2.330460188495E+00  4.741335827084E+00
   14    20 CA    4.685264849307E+00  4.721692422067E+00  4.721692422067E+00
   15    12 MG    6.544032123900E-02 -2.958361453000E-03  4.782824837295E+00
   16    20 CA   -2.400946155632E+00  2.380503325229E+00  1.825624276600E-02
   17    12 MG    6.544032123900E-02  4.782824837295E+00 -2.958361452999E-03
   18    12 MG   -4.760317224659E+00  8.262988664999E-03  8.262988664999E-03
   19    20 CA    3.025120994400E-02 -2.326286066552E+00 -2.326286066552E+00
   20    12 MG    2.319818576402E+00  2.189306704999E-03 -2.235024898695E+00
   21    20 CA   -2.339902055477E+00 -4.730503071423E+00 -2.318781377181E+00
   22    12 MG    2.319818576402E+00 -2.235024898695E+00  2.189306705001E-03
   23    12 MG    4.731811410912E+00 -3.492006878900E-02 -3.492006878900E-02
   24    12 MG    5.964770341300E-02 -4.768557650237E+00  1.901062365300E-02
   25    20 CA   -2.339902055477E+00 -2.318781377181E+00 -4.730503071423E+00
   26    12 MG    5.964770341300E-02  1.901062365300E-02 -4.768557650237E+00
   27    12 MG   -4.752885155825E+00 -4.770757208293E+00 -4.770757208293E+00
   28     8 O     9.553928397900E-02 -3.318540917000E-03 -2.382017970255E+00
   29     8 O     2.329776897140E+00  2.215093043241E+00 -2.394749946314E+00
   30     8 O    -2.334121756321E+00 -2.334768017776E+00 -2.334768017776E+00
   31     8 O     2.366297072041E+00 -6.119635205000E-02 -6.119635205000E-02
   32     8 O     4.768653167790E+00  2.237875226926E+00  2.672469984000E-03
   33     8 O     9.553928397900E-02 -2.382017970255E+00 -3.318540917000E-03
   34     8 O     4.768653167790E+00  2.672469984001E-03  2.237875226926E+00
   35     8 O     7.109683517492E+00  2.223972830200E+00  2.223972830200E+00
   36     8 O     2.329776897140E+00 -2.394749946314E+00  2.215093043241E+00
   37     8 O    -2.881281151000E-03  2.415960865310E+00  8.517921730002E-04
   38     8 O     2.257973511278E+00  4.755611650334E+00 -4.773352628999E-03
   39     8 O    -2.399229235220E+00 -5.125532420002E-04 -5.125532420002E-04
   40     8 O     2.334732732722E+00  2.343665094875E+00  2.343665094875E+00
   41     8 O     4.683521782713E+00  4.661830041927E+00  2.329194924912E+00
   42     8 O    -2.881281151000E-03  8.517921730005E-04  2.415960865310E+00
   43     8 O     4.683521782713E+00  2.329194924912E+00  4.661830041927E+00
   44     8 O     7.026018216580E+00  4.783126452676E+00  4.783126452676E+00
   45     8 O     2.257973511278E+00 -4.773352629000E-03  4.755611650334E+00
   46     8 O     8.685381883000E-03  4.770509041333E+00  2.211831615577E+00
   47     8 O     2.228637339895E+00  7.082627931239E+00  2.240152393334E+00
   48     8 O    -2.415953915742E+00  2.325713886835E+00  2.325713886835E+00
   49     8 O     2.335761038681E+00  4.775850007284E+00  4.775850007284E+00
   50     8 O     4.615332371911E+00  6.996331061880E+00  4.785378965538E+00
   51     8 O     8.685381882999E-03  2.211831615577E+00  4.770509041333E+00
   52     8 O     4.615332371911E+00  4.785378965538E+00  6.996331061880E+00
   53     8 O     7.032665735577E+00  6.976204993397E+00  6.976204993397E+00
   54     8 O     2.228637339895E+00  2.240152393334E+00  7.082627931239E+00
 WARNING **** CRYSTA **** TESTGEOM  DIRECTIVE - GEOMETRY EDITING COMPLETE
 TTTTTTTTTTTTTTTTTTTTTTTTTTTTTT END         TELAPSE        0.01 TCPU        0.01
 EEEEEEEEEE TERMINATION  DATE 10 03 2023 TIME 10:27:47.5
Fri 10 Mar 2023 10:27:47 GMT
Contents of temporary directory:
total 16
-rw-r--r--  1 brunocamino  admin  4271 10 Mar 10:27 fort.34
SCF abnormal end - no wf written in fort.9
geometry input file fort.34 saved as /Users/brunocamino/Desktop/Imperial/cmsg_icl/solid-solutions/./data/crystal/testgeom_opt/CaMgO_testgeom_52.gui
temporary directory /Users/brunocamino/crystal/tmp removed
