date Fri 10 Mar 2023 10:28:07 GMT
hostname MacBook-Pro-8
system Darwin MacBook-Pro-8 21.6.0 Darwin Kernel Version 21.6.0: Mon Aug 22 20:20:05 PDT 2022; root:xnu-8020.140.49~2/RELEASE_ARM64_T8101 arm64
user brunocamino
output data in /Users/brunocamino/Desktop/Imperial/cmsg_icl/solid-solutions/./data/crystal/testgeom_opt/CaMgO_testgeom_287.out
crystal executable in /Users/brunocamino/crystal
input data in /Users/brunocamino/Desktop/Imperial/cmsg_icl/solid-solutions/./data/crystal/testgeom_opt/CaMgO_testgeom_287.d12
temporary directory /Users/brunocamino/crystal/tmp
external geometry input from /Users/brunocamino/Desktop/Imperial/cmsg_icl/solid-solutions/./data/crystal/testgeom_opt/CaMgO_testgeom_287.gui
external geometry input saved in /Users/brunocamino/Desktop/Imperial/cmsg_icl/solid-solutions/./data/crystal/testgeom_opt/CaMgO_testgeom_287_inp.gui
Bulk 
EXTERNAL
EXTPRT
TESTGEOM
END

         
 *******************************************************************************
 *                                                                             *
 *                               CRYSTAL17                                     *
 *                      public : 1.0.1 - Feb 1st, 2017                         *
 *                       HTTP://WWW.CRYSTAL.UNITO.IT                           *
 *                                                                             *
 *                              MAIN AUTHORS                                   *
 *                                                                             *
 *  R. DOVESI(1,11), V.R. SAUNDERS(2), C. ROETTI(1,11), R. ORLANDO(1,11),      *
 *  C.M. ZICOVICH-WILSON(1,3), F. PASCALE(4), B. CIVALLERI(1,11),              *
 *  K. DOLL(5), N.M. HARRISON(2,6), I.J. BUSH(7), Ph. D'ARCO(8),               *
 *  M. LLUNELL(9), M. CAUSA'(10), Y. NOEL(8), L. MASCHIO(1,11), A. ERBA(1,11)  *
 *  M. RE'RAT(14), S. CASASSA(1,11)                                            *
 *                                                                             *
 *        CONTRIBUTIONS TO THE CODE HAVE ALSO BEEN GIVEN BY                    *
 *                                                                             *
 *  M. FERRABONE(1,11), M. DE LA PIERRE(1,11), M. FERRERO(1,11),               *
 *  J. BAIMA(1,11), E. ALBANESE(1,11), M.F. PEINTINGER(12), R. BAST(13),       *
 *  B. KIRTMAN(15), V. LACIVITA(1,11), R. DEMICHELIS(1,16)                     *
 *  G. BRANDEBURG(17), S. SALUSTRO(1,11), G. SANSONE(1,11)                     *
 *  M.T. RUGGIERO(18)                                                          *
 *                                                                             *
 * (1) THEORETICAL CHEMISTRY GROUP - UNIVERSITA' DI TORINO - TORINO (ITALY)    *

 * (2) COMPUTATIONAL SCIENCE & ENGINEERING DEPARTMENT - STFC DARESBURY (UK)    *
 * (3) UNIVERSIDAD AUTONOMA DEL ESTADO DE MORELOS - CUERNAVACA (MEXICO)        *
 * (4) UNIVERSITE' DE LORRAINE - NANCY (FRANCE)                                *
 * (5) UNIVERSITAET STUTTGART- STUTTGART (GERMANY)                             *
 * (6) IMPERIAL COLLEGE - LONDON (UK)                                          *
 * (7) OXFORD E-RESEARCH CENTRE - OXFORD (UK)                                  *
 * (8) UPMC - SORBONNE UNIVERSITES - PARIS (FRANCE)                            *
 * (9) UNIVERSIDAD DE BARCELONA - BARCELONA (SPAIN)                            *
 *(10) UNIVERSITA' DI NAPOLI "FEDERICO II" - NAPOLI (ITALY)                    *
 *(11) NIS - NANOSTRUCTURED INTERFACES AND SURFACES - TORINO (ITALY)           *
 *(12) MPI FUER CHEMISCHE ENERGIEKONVERSION - MUELHEIM AN DER RUHR (GERMANY)   *
 *(13) UNIVERSITY OF TROMSO - TROMSO (NORWAY)                                  *
 *(14) UNIVERSITE' DE PAU ET DES PAYS DE L'ADOUR - PAU (FRANCE)                *
 *(15) UNIVERSITY OF CALIFORNIA SANTA BARBARA - SANTA BARBARA (USA)            *
 *(16) CURTIN UNIVERSITY - PERTH (AUSTRALIA)                                   *
 *(17) UNIVERSITY COLLEGE LONDON - LONDON (UK)                                 *
 *(18) CAMBRIDGE UNIVERSITY - CAMBRIDGE (UK)                                   *
 *                                                                             *
 *******************************************************************************
 EEEEEEEEEE STARTING  DATE 10 03 2023 TIME 10:28:07.7
 Bulk                                                                            

 GEOMETRY INPUT FROM EXTERNAL FILE (FORTRAN UNIT 34)
 3D - CRYSTAL 

 *******************************************************************************
 LATTICE PARAMETERS  (ANGSTROMS AND DEGREES) - PRIMITIVE CELL
       A          B          C        ALPHA      BETA     GAMMA        VOLUME
    9.91763    9.92439    9.90455    59.99687  60.01544  59.89906    688.873222
 INFORMATION **** CHKGRP **** SPGR WITH NO INVERSION

 NUMBER OF IRREDUCIBLE ATOMS IN THE CELL:   54

 CARTESIAN COORDINATES (ANGSTROM) - IRREDUCIBLE ATOMS AND SYMMETRY RELATED

 AT.IRR.  AT  AT.N.          X                   Y                   Z
     1     1    20    1.476908581900E-02 -2.360020455100E-02 -3.467440221300E-02
     2     2    20    2.339521568062E+00  2.326478328566E+00  3.156367784000E-03
     3     3    20   -2.343935657141E+00 -2.322114432001E+00 -8.107222535000E-03
     4     4    20    2.366821205552E+00 -3.049385920800E-02  2.304974633115E+00
     5     5    20    4.690549759214E+00  2.305121939423E+00  2.332891531561E+00
     6     6    20    4.435714017000E-03 -2.325187527949E+00  2.364043169227E+00
     7     7    20   -2.337234091935E+00 -1.501245000900E-02 -2.383037512490E+00
     8     8    20   -1.330283841700E-02  2.353387347326E+00 -2.339543192413E+00
     9     9    20   -4.695891577602E+00 -2.304817700320E+00 -2.326750587267E+00
    10    10    20   -2.013390534700E-02  2.379735409023E+00  2.368901112818E+00
    11    11    20    2.286526454060E+00  4.694582157810E+00  2.355018363305E+00
    12    12    20   -2.345823794954E+00 -6.504804784000E-03  2.370034635366E+00
    13    13    20    2.306996886945E+00  2.356367151679E+00  4.724891076792E+00
    14    14    12    4.747460860694E+00  4.718944892882E+00  4.763598571710E+00
    15    15    12   -2.240806180200E-02 -8.370670118100E-02  4.764417007924E+00
    16    16    20   -2.353487461712E+00  2.415567101486E+00  3.428212790000E-04
    17    17    12   -1.254599033400E-02  4.790850774167E+00  2.089970795700E-02
    18    18    12   -4.740502165856E+00 -4.819754372000E-02 -2.276478545400E-02
    19    19    12   -7.153458584400E-02 -2.285246089905E+00 -2.341699364173E+00
    20    20    20    2.343105470553E+00 -5.853145073100E-02 -2.327460568630E+00
    21    21    20   -2.301593538470E+00 -4.673765938781E+00 -2.357641426220E+00
    22    22    12    2.353514300184E+00 -2.286215641506E+00 -3.364233814100E-02
    23    23    12    4.763837053795E+00 -1.255839926220E-01 -1.463197701700E-02
    24    24    20    1.893529855700E-02 -4.720027511628E+00 -2.419633734700E-02
    25    25    12   -2.265148320639E+00 -2.275394772105E+00 -4.745349338315E+00
    26    26    12   -5.294549740700E-02 -9.398254109400E-02 -4.710786981157E+00
    27    27    20   -4.673323174059E+00 -4.665540606821E+00 -4.751470025781E+00
    28    28     8   -1.251723422900E-02 -1.019892432470E-01 -2.426807692522E+00
    29    29     8    2.335687880038E+00  2.332080209928E+00 -2.340927614654E+00
    30    30     8   -2.245605594658E+00 -2.323247330027E+00 -2.380228728978E+00
    31    31     8    2.411240979152E+00 -1.000225322470E-01 -8.670731888000E-03
    32    32     8    4.669474978381E+00  2.251459526851E+00 -1.433477496000E-03
    33    33     8    6.132589710100E-02 -2.329730164127E+00 -7.590529591700E-02
    34    34     8    4.772991178735E+00 -1.084984898200E-01  2.234145673630E+00
    35    35     8    6.999125145254E+00  2.253795099308E+00  2.336318233138E+00
    36    36     8    2.405135780377E+00 -2.328823385742E+00  2.280215090544E+00
    37    37     8    1.049401951600E-02  2.417810914791E+00  9.240608540000E-04
    38    38     8    2.243037669285E+00  4.761636116944E+00  9.127517434000E-03
    39    39     8   -2.407346639284E+00  7.337509681000E-03 -1.194248585400E-02
    40    40     8    2.333649812299E+00  2.336971405337E+00  2.329062793746E+00
    41    41     8    4.667668770511E+00  4.667737557090E+00  2.398654799916E+00
    42    42     8   -2.917745670000E-04 -7.644985770000E-04  2.365451807093E+00
    43    43     8    4.681668657840E+00  2.418180510018E+00  4.687233538508E+00
    44    44     8    6.919331056327E+00  4.761748837737E+00  4.782415423592E+00
    45    45     8    2.237685062941E+00 -7.901386552000E-03  4.756380965145E+00
    46    46     8   -1.023292111100E-01  4.765313953475E+00  2.349759551647E+00
    47    47     8    2.251001919603E+00  6.994935068965E+00  2.323972656569E+00
    48    48     8   -2.327941712758E+00  2.414699884357E+00  2.327218211986E+00
    49    49     8    2.355251412924E+00  4.668614549276E+00  4.800113384662E+00
    50    50     8    4.804166596730E+00  6.898655201114E+00  4.788396660132E+00
    51    51     8   -8.629811801000E-03  2.341469821122E+00  4.686785583186E+00
    52    52     8    4.691840916614E+00  4.772025292957E+00  7.005722980420E+00
    53    53     8    7.053008358222E+00  6.895639249195E+00  7.046909526657E+00
    54    54     8    2.339388774591E+00  2.334670792035E+00  7.017681503268E+00

 SYMMETRY CHANGED DURING OLD RUN :  INFORMATION ON SPACE GROUP LOST 
 NUMBER OF SYMMETRY OPERATORS         :    1
 *******************************************************************************
 LATTICE PARAMETERS (ANGSTROMS AND DEGREES) - BOHR = 0.5291772083 ANGSTROM
 PRIMITIVE CELL - CENTRING CODE 1/0 VOLUME=   688.873222 - DENSITY  3.295 g/cm^3
         A              B              C           ALPHA      BETA       GAMMA 
     9.91763241     9.92439027     9.90454510    59.996871  60.015442  59.899060
 *******************************************************************************
 ATOMS IN THE ASYMMETRIC UNIT   54 - ATOMS IN THE UNIT CELL:   54
     ATOM                 X/A                 Y/B                 Z/C    
 *******************************************************************************
      1 T  20 CA   -5.210040864615E-03  2.712858653034E-04  1.841453990335E-03
      2 T  20 CA   -5.444309818487E-04  7.774387880938E-04  3.329994398321E-01
      3 T  20 CA    8.183551793159E-04 -1.756341344228E-03 -3.326503621834E-01
      4 T  20 CA   -6.838683046818E-03  3.349773376139E-01  2.623428824178E-03
      5 T  20 CA   -3.839372389518E-03  3.357382936578E-01  3.333822981045E-01
      6 T  20 CA    2.040929809612E-03  3.347276359414E-01 -3.341749831008E-01
      7 T  20 CA   -4.084757161526E-03 -3.351725673114E-01  1.804987214809E-03
      8 T  20 CA    2.351582781883E-03 -3.356310001797E-01  3.338086768128E-01
      9 T  20 CA    4.679810807662E-03 -3.357037764748E-01 -3.341798557384E-01
     10 T  20 CA    3.401924889914E-01 -2.869587197808E-03 -3.755168003502E-04
     11 T  20 CA    3.399481000044E-01 -4.816576424467E-03  3.306603908446E-01
     12 T  20 CA    3.357870604991E-01  1.914716829825E-03 -3.369592157078E-01
     13 T  20 CA    3.403297042212E-01  3.324000335423E-01 -3.714672851464E-03
     14 T  12 MG    3.376938014838E-01  3.403248897764E-01  3.365393002907E-01
     15 T  12 MG    3.350796825906E-01  3.434988161046E-01 -3.471434165131E-01
     16 T  20 CA    3.404940365446E-01 -3.403679969211E-01  4.304672218325E-03
     17 T  12 MG    3.445740086411E-01 -3.417382158236E-01  3.396497712101E-01
     18 T  12 MG    3.332001311871E-01 -3.361416065316E-01 -3.404669441573E-01
     19 T  12 MG   -3.249643084440E-01 -8.481374387027E-03 -1.365811313407E-03
     20 T  20 CA   -3.372049926364E-01  5.568943854507E-03  3.290875485067E-01
     21 T  20 CA   -3.375730469271E-01  2.068268312343E-03 -3.300636500098E-01
     22 T  12 MG   -3.336294922579E-01  3.287569251191E-01  7.305399873474E-03
     23 T  12 MG   -3.499421622676E-01  3.475610484659E-01  3.323923719107E-01
     24 T  20 CA   -3.402062087533E-01  3.368983942004E-01 -3.339020611893E-01
     25 T  12 MG   -3.389899855982E-01 -3.366585679282E-01  1.394320867048E-02
     26 T  12 MG   -3.385732230868E-01 -3.323569780205E-01  3.252522243074E-01
     27 T  20 CA   -3.383054093784E-01 -3.379921284934E-01 -3.282948075105E-01
     28 T   8 O    -1.792988761729E-01 -1.663366850385E-01  1.647863463920E-01
     29 T   8 O    -1.668841909691E-01 -1.667401239033E-01 -4.998084111216E-01
     30 T   8 O    -1.752901100272E-01 -1.635047109990E-01 -1.566424625688E-01
     31 T   8 O    -1.798191621870E-01  1.784349041850E-01  1.657294376566E-01
     32 T   8 O    -1.724865472170E-01  1.719209138768E-01  4.944161705316E-01
     33 T   8 O    -1.761866793080E-01  1.654408377333E-01 -1.565367472206E-01
     34 T   8 O    -1.891520600056E-01 -4.929467925679E-01  1.739926447858E-01
     35 T   8 O    -1.719926478525E-01 -4.957646614799E-01  4.943919431923E-01
     36 T   8 O    -1.754964691253E-01 -4.998257320969E-01 -1.569606106931E-01
     37 T   8 O     1.720107711354E-01 -1.719513116379E-01  1.732997723581E-01
     38 T   8 O     1.806984988597E-01 -1.796809539799E-01  4.995357450377E-01
     39 T   8 O     1.714525180232E-01 -1.730016139658E-01 -1.705992119879E-01
     40 T   8 O     1.663423353613E-01  1.651591841084E-01  1.675585752469E-01
     41 T   8 O     1.712302778291E-01  1.699666010688E-01  4.957360874143E-01
     42 T   8 O     1.685020852373E-01  1.683986786688E-01 -1.686644172458E-01
     43 T   8 O     1.726139422988E-01  4.946006007651E-01  1.730223202114E-01
     44 T   8 O     1.871151861764E-01  4.934450752056E-01  4.934065511998E-01
     45 T   8 O     1.786497116774E-01  4.986392719669E-01 -1.797038366114E-01
     46 T   8 O    -4.849146458360E-01 -1.805540428800E-01  1.654317080808E-01
     47 T   8 O    -4.954247426093E-01 -1.739312061566E-01  4.945655162952E-01
     48 T   8 O    -4.956034124708E-01 -1.728656792069E-01 -1.597719227926E-01
     49 T   8 O    -4.926002490675E-01  1.759721498404E-01  1.594507199867E-01
     50 T   8 O     4.911015809360E-01  1.903809622475E-01  4.944399417615E-01
     51 T   8 O    -4.982147963344E-01  1.656640228099E-01 -1.674844141531E-01
     52 T   8 O    -4.947971359766E-01  4.921535235077E-01  1.765562790447E-01
     53 T   8 O     4.913337504776E-01 -4.883232558266E-01  4.939083813368E-01
     54 T   8 O     4.998274881981E-01  4.994527327219E-01 -1.663599816678E-01

 T = ATOM BELONGING TO THE ASYMMETRIC UNIT
 *******************************************************************************
 * GEOMETRY EDITING - INPUT COORDINATES ARE GIVEN IN ANGSTROM         
 *******************************************************************************

 GCALCO - MAX INDICES DIRECT LATTICE VECTOR    14    14    14
 NO.OF VECTORS CREATED 6999 STARS 3500 RMAX   198.35770 BOHR

 GEOMETRY FOR WAVE FUNCTION - DIMENSIONALITY OF THE SYSTEM    3
 (NON PERIODIC DIRECTION: LATTICE PARAMETER FORMALLY SET TO 500)
 *******************************************************************************
 LATTICE PARAMETERS (ANGSTROMS AND DEGREES) - BOHR = 0.5291772083 ANGSTROM
 PRIMITIVE CELL - CENTRING CODE 1/0 VOLUME=   688.873222 - DENSITY  3.295 g/cm^3
         A              B              C           ALPHA      BETA       GAMMA 
     9.91763241     9.92439027     9.90454510    59.996871  60.015442  59.899060
 *******************************************************************************
 ATOMS IN THE ASYMMETRIC UNIT   54 - ATOMS IN THE UNIT CELL:   54
     ATOM                 X/A                 Y/B                 Z/C    
 *******************************************************************************
      1 T  20 CA   -5.210040864615E-03  2.712858653034E-04  1.841453990335E-03
      2 T  20 CA   -5.444309818486E-04  7.774387880938E-04  3.329994398321E-01
      3 T  20 CA    8.183551793159E-04 -1.756341344228E-03 -3.326503621834E-01
      4 T  20 CA   -6.838683046818E-03  3.349773376139E-01  2.623428824178E-03
      5 T  20 CA   -3.839372389518E-03  3.357382936578E-01  3.333822981045E-01
      6 T  20 CA    2.040929809612E-03  3.347276359414E-01 -3.341749831008E-01
      7 T  20 CA   -4.084757161526E-03 -3.351725673114E-01  1.804987214809E-03
      8 T  20 CA    2.351582781883E-03 -3.356310001797E-01  3.338086768128E-01
      9 T  20 CA    4.679810807662E-03 -3.357037764748E-01 -3.341798557384E-01
     10 T  20 CA    3.401924889914E-01 -2.869587197808E-03 -3.755168003502E-04
     11 T  20 CA    3.399481000044E-01 -4.816576424467E-03  3.306603908446E-01
     12 T  20 CA    3.357870604991E-01  1.914716829825E-03 -3.369592157078E-01
     13 T  20 CA    3.403297042212E-01  3.324000335423E-01 -3.714672851464E-03
     14 T  12 MG    3.376938014838E-01  3.403248897764E-01  3.365393002907E-01
     15 T  12 MG    3.350796825906E-01  3.434988161046E-01 -3.471434165131E-01
     16 T  20 CA    3.404940365446E-01 -3.403679969211E-01  4.304672218325E-03
     17 T  12 MG    3.445740086411E-01 -3.417382158236E-01  3.396497712101E-01
     18 T  12 MG    3.332001311871E-01 -3.361416065316E-01 -3.404669441573E-01
     19 T  12 MG   -3.249643084440E-01 -8.481374387027E-03 -1.365811313406E-03
     20 T  20 CA   -3.372049926364E-01  5.568943854507E-03  3.290875485067E-01
     21 T  20 CA   -3.375730469271E-01  2.068268312343E-03 -3.300636500098E-01
     22 T  12 MG   -3.336294922579E-01  3.287569251191E-01  7.305399873474E-03
     23 T  12 MG   -3.499421622676E-01  3.475610484659E-01  3.323923719107E-01
     24 T  20 CA   -3.402062087533E-01  3.368983942004E-01 -3.339020611893E-01
     25 T  12 MG   -3.389899855982E-01 -3.366585679282E-01  1.394320867048E-02
     26 T  12 MG   -3.385732230868E-01 -3.323569780205E-01  3.252522243074E-01
     27 T  20 CA   -3.383054093784E-01 -3.379921284934E-01 -3.282948075105E-01
     28 T   8 O    -1.792988761729E-01 -1.663366850385E-01  1.647863463920E-01
     29 T   8 O    -1.668841909691E-01 -1.667401239033E-01 -4.998084111216E-01
     30 T   8 O    -1.752901100272E-01 -1.635047109990E-01 -1.566424625688E-01
     31 T   8 O    -1.798191621870E-01  1.784349041850E-01  1.657294376566E-01
     32 T   8 O    -1.724865472170E-01  1.719209138768E-01  4.944161705316E-01
     33 T   8 O    -1.761866793080E-01  1.654408377333E-01 -1.565367472206E-01
     34 T   8 O    -1.891520600056E-01 -4.929467925679E-01  1.739926447858E-01
     35 T   8 O    -1.719926478525E-01 -4.957646614799E-01  4.943919431923E-01
     36 T   8 O    -1.754964691253E-01 -4.998257320969E-01 -1.569606106931E-01
     37 T   8 O     1.720107711354E-01 -1.719513116379E-01  1.732997723581E-01
     38 T   8 O     1.806984988597E-01 -1.796809539799E-01  4.995357450377E-01
     39 T   8 O     1.714525180232E-01 -1.730016139658E-01 -1.705992119879E-01
     40 T   8 O     1.663423353613E-01  1.651591841084E-01  1.675585752469E-01
     41 T   8 O     1.712302778291E-01  1.699666010688E-01  4.957360874143E-01
     42 T   8 O     1.685020852373E-01  1.683986786688E-01 -1.686644172458E-01
     43 T   8 O     1.726139422988E-01  4.946006007651E-01  1.730223202114E-01
     44 T   8 O     1.871151861764E-01  4.934450752056E-01  4.934065511998E-01
     45 T   8 O     1.786497116774E-01  4.986392719669E-01 -1.797038366114E-01
     46 T   8 O    -4.849146458360E-01 -1.805540428800E-01  1.654317080808E-01
     47 T   8 O    -4.954247426093E-01 -1.739312061566E-01  4.945655162952E-01
     48 T   8 O    -4.956034124708E-01 -1.728656792069E-01 -1.597719227926E-01
     49 T   8 O    -4.926002490675E-01  1.759721498404E-01  1.594507199867E-01
     50 T   8 O     4.911015809360E-01  1.903809622475E-01  4.944399417615E-01
     51 T   8 O    -4.982147963344E-01  1.656640228099E-01 -1.674844141531E-01
     52 T   8 O    -4.947971359766E-01  4.921535235077E-01  1.765562790447E-01
     53 T   8 O     4.913337504776E-01 -4.883232558266E-01  4.939083813368E-01
     54 T   8 O     4.998274881981E-01  4.994527327219E-01 -1.663599816678E-01

 T = ATOM BELONGING TO THE ASYMMETRIC UNIT

 ****    1 SYMMOPS - TRANSLATORS IN FRACTIONAL UNITS
 **** MATRICES AND TRANSLATORS IN THE CRYSTALLOGRAPHIC REFERENCE FRAME
   V INV                    ROTATION MATRICES                   TRANSLATORS
   1   1  1.00  0.00  0.00  0.00  1.00  0.00  0.00  0.00  1.00  0.00  0.00  0.00

 DIRECT LATTICE VECTORS CARTESIAN COMPONENTS (ANGSTROM)
          X                    Y                    Z
   0.769127165460E-02   0.700296178253E+01   0.702267041627E+01
   0.701087888694E+01  -0.286970895677E-02   0.702432141241E+01
   0.700924670450E+01   0.699788921604E+01   0.456081009821E-02


 CARTESIAN COORDINATES - PRIMITIVE CELL
 *******************************************************************************
 *      ATOM          X(ANGSTROM)         Y(ANGSTROM)         Z(ANGSTROM)
 *******************************************************************************
    1    20 CA    1.476908581900E-02 -2.360020455100E-02 -3.467440221300E-02
    2    20 CA    2.339521568062E+00  2.326478328566E+00  3.156367784000E-03
    3    20 CA   -2.343935657141E+00 -2.322114432001E+00 -8.107222535000E-03
    4    20 CA    2.366821205552E+00 -3.049385920800E-02  2.304974633115E+00
    5    20 CA    4.690549759214E+00  2.305121939423E+00  2.332891531561E+00
    6    20 CA    4.435714016999E-03 -2.325187527949E+00  2.364043169227E+00
    7    20 CA   -2.337234091935E+00 -1.501245000900E-02 -2.383037512490E+00
    8    20 CA   -1.330283841700E-02  2.353387347326E+00 -2.339543192413E+00
    9    20 CA   -4.695891577602E+00 -2.304817700320E+00 -2.326750587267E+00
   10    20 CA   -2.013390534700E-02  2.379735409023E+00  2.368901112818E+00
   11    20 CA    2.286526454060E+00  4.694582157810E+00  2.355018363305E+00
   12    20 CA   -2.345823794954E+00 -6.504804784001E-03  2.370034635366E+00
   13    20 CA    2.306996886945E+00  2.356367151679E+00  4.724891076792E+00
   14    12 MG    4.747460860694E+00  4.718944892882E+00  4.763598571710E+00
   15    12 MG   -2.240806180200E-02 -8.370670118100E-02  4.764417007924E+00
   16    20 CA   -2.353487461712E+00  2.415567101486E+00  3.428212789997E-04
   17    12 MG   -1.254599033400E-02  4.790850774167E+00  2.089970795700E-02
   18    12 MG   -4.740502165856E+00 -4.819754372000E-02 -2.276478545400E-02
   19    12 MG   -7.153458584400E-02 -2.285246089905E+00 -2.341699364173E+00
   20    20 CA    2.343105470553E+00 -5.853145073100E-02 -2.327460568630E+00
   21    20 CA   -2.301593538470E+00 -4.673765938781E+00 -2.357641426220E+00
   22    12 MG    2.353514300184E+00 -2.286215641506E+00 -3.364233814100E-02
   23    12 MG    4.763837053795E+00 -1.255839926220E-01 -1.463197701700E-02
   24    20 CA    1.893529855700E-02 -4.720027511628E+00 -2.419633734700E-02
   25    12 MG   -2.265148320639E+00 -2.275394772105E+00 -4.745349338315E+00
   26    12 MG   -5.294549740700E-02 -9.398254109400E-02 -4.710786981157E+00
   27    20 CA   -4.673323174059E+00 -4.665540606821E+00 -4.751470025781E+00
   28     8 O    -1.251723422900E-02 -1.019892432470E-01 -2.426807692522E+00
   29     8 O     2.335687880038E+00  2.332080209928E+00 -2.340927614654E+00
   30     8 O    -2.245605594658E+00 -2.323247330027E+00 -2.380228728978E+00
   31     8 O     2.411240979152E+00 -1.000225322470E-01 -8.670731888000E-03
   32     8 O     4.669474978381E+00  2.251459526851E+00 -1.433477496000E-03
   33     8 O     6.132589710100E-02 -2.329730164127E+00 -7.590529591700E-02
   34     8 O     4.772991178735E+00 -1.084984898200E-01  2.234145673630E+00
   35     8 O     6.999125145254E+00  2.253795099308E+00  2.336318233138E+00
   36     8 O     2.405135780377E+00 -2.328823385742E+00  2.280215090544E+00
   37     8 O     1.049401951600E-02  2.417810914791E+00  9.240608540001E-04
   38     8 O     2.243037669285E+00  4.761636116944E+00  9.127517434000E-03
   39     8 O    -2.407346639284E+00  7.337509681000E-03 -1.194248585400E-02
   40     8 O     2.333649812299E+00  2.336971405337E+00  2.329062793746E+00
   41     8 O     4.667668770511E+00  4.667737557090E+00  2.398654799916E+00
   42     8 O    -2.917745669999E-04 -7.644985769999E-04  2.365451807093E+00
   43     8 O     4.681668657840E+00  2.418180510018E+00  4.687233538508E+00
   44     8 O     6.919331056327E+00  4.761748837737E+00  4.782415423592E+00
   45     8 O     2.237685062941E+00 -7.901386552000E-03  4.756380965145E+00
   46     8 O    -1.023292111100E-01  4.765313953475E+00  2.349759551647E+00
   47     8 O     2.251001919603E+00  6.994935068965E+00  2.323972656569E+00
   48     8 O    -2.327941712758E+00  2.414699884357E+00  2.327218211986E+00
   49     8 O     2.355251412924E+00  4.668614549276E+00  4.800113384662E+00
   50     8 O     4.804166596730E+00  6.898655201114E+00  4.788396660132E+00
   51     8 O    -8.629811801000E-03  2.341469821122E+00  4.686785583186E+00
   52     8 O     4.691840916614E+00  4.772025292957E+00  7.005722980420E+00
   53     8 O     7.053008358222E+00  6.895639249195E+00  7.046909526657E+00
   54     8 O     2.339388774591E+00  2.334670792035E+00  7.017681503268E+00
 WARNING **** CRYSTA **** TESTGEOM  DIRECTIVE - GEOMETRY EDITING COMPLETE
 TTTTTTTTTTTTTTTTTTTTTTTTTTTTTT END         TELAPSE        0.01 TCPU        0.01
 EEEEEEEEEE TERMINATION  DATE 10 03 2023 TIME 10:28:07.7
Fri 10 Mar 2023 10:28:07 GMT
Contents of temporary directory:
total 8
-rw-r--r--  1 brunocamino  admin  4027 10 Mar 10:28 fort.34
SCF abnormal end - no wf written in fort.9
geometry input file fort.34 saved as /Users/brunocamino/Desktop/Imperial/cmsg_icl/solid-solutions/./data/crystal/testgeom_opt/CaMgO_testgeom_287.gui
temporary directory /Users/brunocamino/crystal/tmp removed
