date Fri 10 Mar 2023 10:29:17 GMT
hostname MacBook-Pro-8
system Darwin MacBook-Pro-8 21.6.0 Darwin Kernel Version 21.6.0: Mon Aug 22 20:20:05 PDT 2022; root:xnu-8020.140.49~2/RELEASE_ARM64_T8101 arm64
user brunocamino
output data in /Users/brunocamino/Desktop/Imperial/cmsg_icl/solid-solutions/./data/crystal/testgeom_opt/CaMgO_testgeom_1120.out
crystal executable in /Users/brunocamino/crystal
input data in /Users/brunocamino/Desktop/Imperial/cmsg_icl/solid-solutions/./data/crystal/testgeom_opt/CaMgO_testgeom_1120.d12
temporary directory /Users/brunocamino/crystal/tmp
external geometry input from /Users/brunocamino/Desktop/Imperial/cmsg_icl/solid-solutions/./data/crystal/testgeom_opt/CaMgO_testgeom_1120.gui
external geometry input saved in /Users/brunocamino/Desktop/Imperial/cmsg_icl/solid-solutions/./data/crystal/testgeom_opt/CaMgO_testgeom_1120_inp.gui
Bulk 
EXTERNAL
EXTPRT
TESTGEOM
END

         
 *******************************************************************************
 *                                                                             *
 *                               CRYSTAL17                                     *
 *                      public : 1.0.1 - Feb 1st, 2017                         *
 *                       HTTP://WWW.CRYSTAL.UNITO.IT                           *
 *                                                                             *
 *                              MAIN AUTHORS                                   *
 *                                                                             *
 *  R. DOVESI(1,11), V.R. SAUNDERS(2), C. ROETTI(1,11), R. ORLANDO(1,11),      *
 *  C.M. ZICOVICH-WILSON(1,3), F. PASCALE(4), B. CIVALLERI(1,11),              *
 *  K. DOLL(5), N.M. HARRISON(2,6), I.J. BUSH(7), Ph. D'ARCO(8),               *
 *  M. LLUNELL(9), M. CAUSA'(10), Y. NOEL(8), L. MASCHIO(1,11), A. ERBA(1,11)  *
 *  M. RE'RAT(14), S. CASASSA(1,11)                                            *
 *                                                                             *
 *        CONTRIBUTIONS TO THE CODE HAVE ALSO BEEN GIVEN BY                    *
 *                                                                             *
 *  M. FERRABONE(1,11), M. DE LA PIERRE(1,11), M. FERRERO(1,11),               *
 *  J. BAIMA(1,11), E. ALBANESE(1,11), M.F. PEINTINGER(12), R. BAST(13),       *
 *  B. KIRTMAN(15), V. LACIVITA(1,11), R. DEMICHELIS(1,16)                     *
 *  G. BRANDEBURG(17), S. SALUSTRO(1,11), G. SANSONE(1,11)                     *
 *  M.T. RUGGIERO(18)                                                          *
 *                                                                             *
 * (1) THEORETICAL CHEMISTRY GROUP - UNIVERSITA' DI TORINO - TORINO (ITALY)    *

 * (2) COMPUTATIONAL SCIENCE & ENGINEERING DEPARTMENT - STFC DARESBURY (UK)    *
 * (3) UNIVERSIDAD AUTONOMA DEL ESTADO DE MORELOS - CUERNAVACA (MEXICO)        *
 * (4) UNIVERSITE' DE LORRAINE - NANCY (FRANCE)                                *
 * (5) UNIVERSITAET STUTTGART- STUTTGART (GERMANY)                             *
 * (6) IMPERIAL COLLEGE - LONDON (UK)                                          *
 * (7) OXFORD E-RESEARCH CENTRE - OXFORD (UK)                                  *
 * (8) UPMC - SORBONNE UNIVERSITES - PARIS (FRANCE)                            *
 * (9) UNIVERSIDAD DE BARCELONA - BARCELONA (SPAIN)                            *
 *(10) UNIVERSITA' DI NAPOLI "FEDERICO II" - NAPOLI (ITALY)                    *
 *(11) NIS - NANOSTRUCTURED INTERFACES AND SURFACES - TORINO (ITALY)           *
 *(12) MPI FUER CHEMISCHE ENERGIEKONVERSION - MUELHEIM AN DER RUHR (GERMANY)   *
 *(13) UNIVERSITY OF TROMSO - TROMSO (NORWAY)                                  *
 *(14) UNIVERSITE' DE PAU ET DES PAYS DE L'ADOUR - PAU (FRANCE)                *
 *(15) UNIVERSITY OF CALIFORNIA SANTA BARBARA - SANTA BARBARA (USA)            *
 *(16) CURTIN UNIVERSITY - PERTH (AUSTRALIA)                                   *
 *(17) UNIVERSITY COLLEGE LONDON - LONDON (UK)                                 *
 *(18) CAMBRIDGE UNIVERSITY - CAMBRIDGE (UK)                                   *
 *                                                                             *
 *******************************************************************************
 EEEEEEEEEE STARTING  DATE 10 03 2023 TIME 10:29:17.2
 Bulk                                                                            

 GEOMETRY INPUT FROM EXTERNAL FILE (FORTRAN UNIT 34)
 3D - CRYSTAL 

 *******************************************************************************
 LATTICE PARAMETERS  (ANGSTROMS AND DEGREES) - PRIMITIVE CELL
       A          B          C        ALPHA      BETA     GAMMA        VOLUME
    9.90054    9.89458    9.90564    59.86378  60.04097  60.10556    686.204233
 INFORMATION **** CHKGRP **** SPGR WITH NO INVERSION

 NUMBER OF IRREDUCIBLE ATOMS IN THE CELL:   54

 CARTESIAN COORDINATES (ANGSTROM) - IRREDUCIBLE ATOMS AND SYMMETRY RELATED

 AT.IRR.  AT  AT.N.          X                   Y                   Z
     1     1    20   -6.520219521000E-03 -1.296137433500E-02 -2.465161512300E-02
     2     2    20    2.371607412200E+00  2.338836815934E+00 -3.404419034900E-02
     3     3    20   -2.333767396951E+00 -2.348757005698E+00 -4.795990033400E-02
     4     4    20    2.356990638057E+00 -3.253712316200E-02  2.326799829092E+00
     5     5    20    4.709559199387E+00  2.319124900716E+00  2.309365140721E+00
     6     6    20    1.307345004200E-02 -2.373022600383E+00  2.341184474099E+00
     7     7    20   -2.325833233331E+00 -3.460008498800E-02 -2.348879409648E+00
     8     8    20    2.374003583900E-02  2.333743488901E+00 -2.360407479081E+00
     9     9    12   -4.623377807854E+00 -2.409471145145E+00 -2.391463062589E+00
    10    10    20   -5.206354710000E-02  2.353782174749E+00  2.349028108341E+00
    11    11    20    2.316489657315E+00  4.706362259556E+00  2.381107447417E+00
    12    12    20   -2.369059567104E+00  4.170131149700E-02  2.370916773058E+00
    13    13    20    2.323869519633E+00  2.366013653714E+00  4.707401172567E+00
    14    14    12    4.668264162735E+00  4.635282814433E+00  4.750678787013E+00
    15    15    20   -3.692493939100E-02  1.655047148000E-03  4.699317515138E+00
    16    16    12   -2.322977838208E+00  2.331632952619E+00 -2.489215185100E-02
    17    17    20   -3.370188055100E-02  4.689751060929E+00 -6.616380555000E-03
    18    18    20   -4.706652075129E+00  3.608555160000E-02  1.911080045000E-02
    19    19    12   -2.628543170700E-02 -2.364439654117E+00 -2.337768944805E+00
    20    20    20    2.368958045439E+00  3.407946230000E-03 -2.339202630189E+00
    21    21    12   -2.323774601218E+00 -4.585185963515E+00 -2.281188264975E+00
    22    22    20    2.361790863364E+00 -2.371006464816E+00 -5.894072700000E-03
    23    23    12    4.733009243708E+00  1.040990698720E-01 -2.640633025700E-02
    24    24    12   -6.382904962900E-02 -4.682975706135E+00  2.147272021400E-02
    25    25    20   -2.331054119818E+00 -2.358237171599E+00 -4.678549891991E+00
    26    26    12    1.575683302700E-02  3.289203753700E-02 -4.690010788820E+00
    27    27    12   -4.649690443971E+00 -4.681081157136E+00 -4.698833410929E+00
    28    28     8   -5.408653730000E-03 -9.802576006000E-02 -2.408803094891E+00
    29    29     8    2.449260713535E+00  2.435536942618E+00 -2.399132257874E+00
    30    30     8   -2.354861206034E+00 -2.432135989658E+00 -2.337570019196E+00
    31    31     8    2.426880279471E+00  9.335748668000E-03  8.509540603000E-03
    32    32     8    4.756373783855E+00  2.256207311579E+00 -7.963568001900E-02
    33    33     8   -8.797937929000E-03 -2.420698167289E+00 -1.021626121030E-01
    34    34     8    4.757924010352E+00  3.965426232000E-03  2.222197942146E+00
    35    35     8    7.085737601372E+00  2.241732838065E+00  2.226622420314E+00
    36    36     8    2.331905906412E+00 -2.424685439183E+00  2.427279588731E+00
    37    37     8   -7.789116858000E-02  2.323843530401E+00  2.192972347000E-03
    38    38     8    2.332958581990E+00  4.662725840791E+00 -5.201900979100E-02
    39    39     8   -2.339802568172E+00  9.622870137400E-02 -2.641991955000E-03
    40    40     8    2.334954339057E+00  2.330332164573E+00  2.337985135645E+00
    41    41     8    4.676964971233E+00  4.664307988691E+00  2.402243192353E+00
    42    42     8   -4.031782667000E-03  7.194634650000E-04  2.334147050150E+00
    43    43     8    4.678137190380E+00  2.406587908083E+00  4.743177572716E+00
    44    44     8    6.990848008584E+00  4.652308295649E+00  4.657833769117E+00
    45    45     8    2.341989515158E+00 -9.504909676300E-02  4.644525824447E+00
    46    46     8   -3.821329614000E-03  4.747348830059E+00  2.444822276920E+00
    47    47     8    2.237308937475E+00  7.108147767399E+00  2.336840229370E+00
    48    48     8   -2.432246260458E+00  2.336150692858E+00  2.296233313580E+00
    49    49     8    2.356935149312E+00  4.668976305616E+00  4.674755985927E+00
    50    50     8    4.680575585874E+00  7.013587315711E+00  4.779454692284E+00
    51    51     8   -1.103491271920E-01  2.438081031538E+00  4.747291161334E+00
    52    52     8    4.678577171726E+00  4.585768904457E+00  6.867135231204E+00
    53    53     8    6.912836118506E+00  7.111002769131E+00  7.075875133467E+00
    54    54     8    2.356695657698E+00  2.335730100692E+00  7.077187562619E+00

 SYMMETRY CHANGED DURING OLD RUN :  INFORMATION ON SPACE GROUP LOST 
 NUMBER OF SYMMETRY OPERATORS         :    1
 *******************************************************************************
 LATTICE PARAMETERS (ANGSTROMS AND DEGREES) - BOHR = 0.5291772083 ANGSTROM
 PRIMITIVE CELL - CENTRING CODE 1/0 VOLUME=   686.204233 - DENSITY  3.308 g/cm^3
         A              B              C           ALPHA      BETA       GAMMA 
     9.90054234     9.89457819     9.90563749    59.863780  60.040968  60.105561
 *******************************************************************************
 ATOMS IN THE ASYMMETRIC UNIT   54 - ATOMS IN THE UNIT CELL:   54
     ATOM                 X/A                 Y/B                 Z/C    
 *******************************************************************************
      1 T  20 CA   -2.222172103812E-03 -1.304375184130E-03  3.730413895561E-04
      2 T  20 CA   -4.234319002872E-03 -6.979878490348E-04  3.387181446743E-01
      3 T  20 CA   -5.023808320933E-03 -1.772631187345E-03 -3.308605258851E-01
      4 T  20 CA   -3.799775257692E-03  3.370715024556E-01 -8.960927648765E-04
      5 T  20 CA   -4.577690633631E-03  3.352896274980E-01  3.361932870411E-01
      6 T  20 CA   -3.057552822406E-03  3.384519757267E-01 -3.363513004788E-01
      7 T  20 CA   -4.785958209395E-03 -3.316312421393E-01 -1.037200679977E-04
      8 T  20 CA   -3.738228218613E-03 -3.343964363636E-01  3.375422674073E-01
      9 T  12 MG   -1.386666534291E-02 -3.285690845721E-01 -3.306348177165E-01
     10 T  20 CA    3.395012062064E-01 -3.715504386687E-03 -3.540655272028E-03
     11 T  20 CA    3.411885751227E-01 -8.752097277254E-04  3.312093039993E-01
     12 T  20 CA    3.408914421309E-01 -1.910169617001E-03 -3.355830598522E-01
     13 T  20 CA    3.398044142163E-01  3.337667563845E-01 -2.145353322412E-03
     14 T  12 MG    3.380644046485E-01  3.416466480139E-01  3.241235845136E-01
     15 T  20 CA    3.384384946479E-01  3.340416332133E-01 -3.389022817709E-01
     16 T  12 MG    3.299078364032E-01 -3.341177692085E-01  2.952689068371E-03
     17 T  20 CA    3.366447032975E-01 -3.383130838254E-01  3.334364736863E-01
     18 T  20 CA    3.388017414470E-01 -3.366623755974E-01 -3.342427291194E-01
     19 T  12 MG   -3.338833225807E-01 -2.993525212919E-04 -3.611555411275E-03
     20 T  20 CA   -3.353991724263E-01  9.493667385881E-04  3.365314169942E-01
     21 T  12 MG   -3.248839399646E-01 -1.150168921846E-03 -3.302156486167E-01
     22 T  20 CA   -3.376786275185E-01  3.374938558003E-01 -7.982362653436E-04
     23 T  12 MG   -3.311927733983E-01  3.279912587640E-01  3.466681302055E-01
     24 T  12 MG   -3.281609055638E-01  3.319420076987E-01 -3.409667014404E-01
     25 T  20 CA   -3.366772525569E-01 -3.327673119668E-01  1.241390818389E-04
     26 T  12 MG   -3.338019261420E-01 -3.373543215002E-01  3.391978453330E-01
     27 T  12 MG   -3.389510546188E-01 -3.333314517054E-01 -3.297860564968E-01
     28 T   8 O    -1.786831369534E-01 -1.660087658595E-01  1.650328219917E-01
     29 T   8 O    -1.718061630361E-01 -1.715816823831E-01 -4.795333444003E-01
     30 T   8 O    -1.730311378398E-01 -1.614045744668E-01 -1.744303631997E-01
     31 T   8 O    -1.713894503586E-01  1.729099405510E-01  1.730284739870E-01
     32 T   8 O    -1.830559942361E-01  1.719109625958E-01 -4.939587114693E-01
     33 T   8 O    -1.794434359692E-01  1.651928528850E-01 -1.664185240061E-01
     34 T   8 O    -1.794842897244E-01  4.980825492974E-01  1.803225795889E-01
     35 T   8 O    -1.850684324121E-01 -4.957506743222E-01 -4.940617474942E-01
     36 T   8 O    -1.655711371963E-01 -4.864154571035E-01 -1.809394616013E-01
     37 T   8 O     1.715570051110E-01 -1.716083978088E-01  1.604699537895E-01
     38 T   8 O     1.630933088619E-01 -1.709581622115E-01 -4.965680847389E-01
     39 T   8 O     1.731477413452E-01 -1.738338022871E-01 -1.596933037275E-01
     40 T   8 O     1.672110917157E-01  1.672971014902E-01  1.657018260305E-01
     41 T   8 O     1.717577034631E-01  1.718825334676E-01  4.949262009822E-01
     42 T   8 O     1.670767735509E-01  1.669453484574E-01 -1.673199892492E-01
     43 T   8 O     1.777584512170E-01 -4.987787085768E-01  1.659898737831E-01
     44 T   8 O     1.674038894033E-01  4.993092943102E-01  4.975236898881E-01
     45 T   8 O     1.583714071516E-01 -4.934191582946E-01 -1.723441255310E-01
     46 T   8 O    -4.862530459357E-01 -1.646129167619E-01  1.642048543050E-01
     47 T   8 O    -4.849186133143E-01 -1.814800759948E-01 -4.995132715045E-01
     48 T   8 O    -4.961872860067E-01 -1.758777197898E-01 -1.706640534919E-01
     49 T   8 O     4.994882819754E-01  1.690631624105E-01  1.672333846677E-01
     50 T   8 O    -4.910102169101E-01  1.744769418255E-01  4.930141495560E-01
     51 T   8 O    -4.790166921696E-01  1.579801047232E-01 -1.733402599089E-01
     52 T   8 O     4.849846990820E-01  4.976058443648E-01  1.698166265741E-01
     53 T   8 O    -4.788309887440E-01  4.911865578456E-01  4.946957838367E-01
     54 T   8 O    -4.954080055089E-01 -4.918892543839E-01 -1.716065675675E-01

 T = ATOM BELONGING TO THE ASYMMETRIC UNIT
 *******************************************************************************
 * GEOMETRY EDITING - INPUT COORDINATES ARE GIVEN IN ANGSTROM         
 *******************************************************************************

 GCALCO - MAX INDICES DIRECT LATTICE VECTOR    14    15    15
 NO.OF VECTORS CREATED 6999 STARS 3500 RMAX   198.15581 BOHR

 GEOMETRY FOR WAVE FUNCTION - DIMENSIONALITY OF THE SYSTEM    3
 (NON PERIODIC DIRECTION: LATTICE PARAMETER FORMALLY SET TO 500)
 *******************************************************************************
 LATTICE PARAMETERS (ANGSTROMS AND DEGREES) - BOHR = 0.5291772083 ANGSTROM
 PRIMITIVE CELL - CENTRING CODE 1/0 VOLUME=   686.204233 - DENSITY  3.308 g/cm^3
         A              B              C           ALPHA      BETA       GAMMA 
     9.90054234     9.89457819     9.90563749    59.863780  60.040968  60.105561
 *******************************************************************************
 ATOMS IN THE ASYMMETRIC UNIT   54 - ATOMS IN THE UNIT CELL:   54
     ATOM                 X/A                 Y/B                 Z/C    
 *******************************************************************************
      1 T  20 CA   -2.222172103812E-03 -1.304375184130E-03  3.730413895561E-04
      2 T  20 CA   -4.234319002872E-03 -6.979878490349E-04  3.387181446743E-01
      3 T  20 CA   -5.023808320934E-03 -1.772631187345E-03 -3.308605258851E-01
      4 T  20 CA   -3.799775257692E-03  3.370715024556E-01 -8.960927648764E-04
      5 T  20 CA   -4.577690633631E-03  3.352896274980E-01  3.361932870411E-01
      6 T  20 CA   -3.057552822406E-03  3.384519757267E-01 -3.363513004788E-01
      7 T  20 CA   -4.785958209395E-03 -3.316312421393E-01 -1.037200679976E-04
      8 T  20 CA   -3.738228218613E-03 -3.343964363636E-01  3.375422674073E-01
      9 T  12 MG   -1.386666534291E-02 -3.285690845721E-01 -3.306348177165E-01
     10 T  20 CA    3.395012062064E-01 -3.715504386687E-03 -3.540655272028E-03
     11 T  20 CA    3.411885751227E-01 -8.752097277255E-04  3.312093039993E-01
     12 T  20 CA    3.408914421309E-01 -1.910169617001E-03 -3.355830598522E-01
     13 T  20 CA    3.398044142163E-01  3.337667563845E-01 -2.145353322412E-03
     14 T  12 MG    3.380644046485E-01  3.416466480139E-01  3.241235845136E-01
     15 T  20 CA    3.384384946479E-01  3.340416332133E-01 -3.389022817709E-01
     16 T  12 MG    3.299078364032E-01 -3.341177692085E-01  2.952689068371E-03
     17 T  20 CA    3.366447032975E-01 -3.383130838254E-01  3.334364736863E-01
     18 T  20 CA    3.388017414470E-01 -3.366623755974E-01 -3.342427291194E-01
     19 T  12 MG   -3.338833225807E-01 -2.993525212920E-04 -3.611555411275E-03
     20 T  20 CA   -3.353991724263E-01  9.493667385879E-04  3.365314169942E-01
     21 T  12 MG   -3.248839399646E-01 -1.150168921846E-03 -3.302156486167E-01
     22 T  20 CA   -3.376786275185E-01  3.374938558003E-01 -7.982362653436E-04
     23 T  12 MG   -3.311927733983E-01  3.279912587640E-01  3.466681302055E-01
     24 T  12 MG   -3.281609055638E-01  3.319420076987E-01 -3.409667014404E-01
     25 T  20 CA   -3.366772525569E-01 -3.327673119668E-01  1.241390818390E-04
     26 T  12 MG   -3.338019261420E-01 -3.373543215002E-01  3.391978453330E-01
     27 T  12 MG   -3.389510546188E-01 -3.333314517054E-01 -3.297860564968E-01
     28 T   8 O    -1.786831369534E-01 -1.660087658595E-01  1.650328219917E-01
     29 T   8 O    -1.718061630361E-01 -1.715816823831E-01 -4.795333444003E-01
     30 T   8 O    -1.730311378398E-01 -1.614045744668E-01 -1.744303631997E-01
     31 T   8 O    -1.713894503586E-01  1.729099405510E-01  1.730284739870E-01
     32 T   8 O    -1.830559942361E-01  1.719109625958E-01 -4.939587114693E-01
     33 T   8 O    -1.794434359692E-01  1.651928528850E-01 -1.664185240061E-01
     34 T   8 O    -1.794842897244E-01  4.980825492974E-01  1.803225795889E-01
     35 T   8 O    -1.850684324121E-01 -4.957506743222E-01 -4.940617474942E-01
     36 T   8 O    -1.655711371963E-01 -4.864154571035E-01 -1.809394616013E-01
     37 T   8 O     1.715570051110E-01 -1.716083978088E-01  1.604699537895E-01
     38 T   8 O     1.630933088619E-01 -1.709581622115E-01 -4.965680847389E-01
     39 T   8 O     1.731477413452E-01 -1.738338022871E-01 -1.596933037275E-01
     40 T   8 O     1.672110917157E-01  1.672971014902E-01  1.657018260305E-01
     41 T   8 O     1.717577034631E-01  1.718825334676E-01  4.949262009822E-01
     42 T   8 O     1.670767735509E-01  1.669453484574E-01 -1.673199892492E-01
     43 T   8 O     1.777584512170E-01 -4.987787085768E-01  1.659898737831E-01
     44 T   8 O     1.674038894033E-01  4.993092943102E-01  4.975236898881E-01
     45 T   8 O     1.583714071516E-01 -4.934191582946E-01 -1.723441255310E-01
     46 T   8 O    -4.862530459357E-01 -1.646129167619E-01  1.642048543050E-01
     47 T   8 O    -4.849186133143E-01 -1.814800759948E-01 -4.995132715045E-01
     48 T   8 O    -4.961872860067E-01 -1.758777197898E-01 -1.706640534919E-01
     49 T   8 O     4.994882819754E-01  1.690631624105E-01  1.672333846677E-01
     50 T   8 O    -4.910102169101E-01  1.744769418255E-01  4.930141495560E-01
     51 T   8 O    -4.790166921696E-01  1.579801047232E-01 -1.733402599089E-01
     52 T   8 O     4.849846990820E-01  4.976058443648E-01  1.698166265741E-01
     53 T   8 O    -4.788309887440E-01  4.911865578456E-01  4.946957838367E-01
     54 T   8 O    -4.954080055089E-01 -4.918892543839E-01 -1.716065675675E-01

 T = ATOM BELONGING TO THE ASYMMETRIC UNIT

 ****    1 SYMMOPS - TRANSLATORS IN FRACTIONAL UNITS
 **** MATRICES AND TRANSLATORS IN THE CRYSTALLOGRAPHIC REFERENCE FRAME
   V INV                    ROTATION MATRICES                   TRANSLATORS
   1   1  1.00  0.00  0.00  0.00  1.00  0.00  0.00  0.00  1.00  0.00  0.00  0.00

 DIRECT LATTICE VECTORS CARTESIAN COMPONENTS (ANGSTROM)
          X                    Y                    Z
  -0.345173910778E-02   0.700599642893E+01   0.699548001686E+01
   0.701116706003E+01   0.103853672567E-02   0.698184882056E+01
   0.701611810060E+01   0.699254882525E+01   0.132897888179E-02


 CARTESIAN COORDINATES - PRIMITIVE CELL
 *******************************************************************************
 *      ATOM          X(ANGSTROM)         Y(ANGSTROM)         Z(ANGSTROM)
 *******************************************************************************
    1    20 CA   -6.520219521000E-03 -1.296137433500E-02 -2.465161512300E-02
    2    20 CA    2.371607412200E+00  2.338836815934E+00 -3.404419034900E-02
    3    20 CA   -2.333767396951E+00 -2.348757005698E+00 -4.795990033400E-02
    4    20 CA    2.356990638057E+00 -3.253712316200E-02  2.326799829092E+00
    5    20 CA    4.709559199387E+00  2.319124900716E+00  2.309365140721E+00
    6    20 CA    1.307345004200E-02 -2.373022600383E+00  2.341184474099E+00
    7    20 CA   -2.325833233331E+00 -3.460008498800E-02 -2.348879409648E+00
    8    20 CA    2.374003583900E-02  2.333743488901E+00 -2.360407479081E+00
    9    12 MG   -4.623377807854E+00 -2.409471145145E+00 -2.391463062589E+00
   10    20 CA   -5.206354710000E-02  2.353782174749E+00  2.349028108341E+00
   11    20 CA    2.316489657315E+00  4.706362259556E+00  2.381107447417E+00
   12    20 CA   -2.369059567104E+00  4.170131149700E-02  2.370916773058E+00
   13    20 CA    2.323869519633E+00  2.366013653714E+00  4.707401172567E+00
   14    12 MG    4.668264162735E+00  4.635282814433E+00  4.750678787013E+00
   15    20 CA   -3.692493939100E-02  1.655047148000E-03  4.699317515138E+00
   16    12 MG   -2.322977838208E+00  2.331632952619E+00 -2.489215185100E-02
   17    20 CA   -3.370188055100E-02  4.689751060929E+00 -6.616380555000E-03
   18    20 CA   -4.706652075129E+00  3.608555160000E-02  1.911080045000E-02
   19    12 MG   -2.628543170700E-02 -2.364439654117E+00 -2.337768944805E+00
   20    20 CA    2.368958045439E+00  3.407946230000E-03 -2.339202630189E+00
   21    12 MG   -2.323774601218E+00 -4.585185963515E+00 -2.281188264975E+00
   22    20 CA    2.361790863364E+00 -2.371006464816E+00 -5.894072700000E-03
   23    12 MG    4.733009243708E+00  1.040990698720E-01 -2.640633025700E-02
   24    12 MG   -6.382904962900E-02 -4.682975706135E+00  2.147272021400E-02
   25    20 CA   -2.331054119818E+00 -2.358237171599E+00 -4.678549891991E+00
   26    12 MG    1.575683302700E-02  3.289203753700E-02 -4.690010788820E+00
   27    12 MG   -4.649690443971E+00 -4.681081157136E+00 -4.698833410929E+00
   28     8 O    -5.408653730000E-03 -9.802576006000E-02 -2.408803094891E+00
   29     8 O     2.449260713535E+00  2.435536942618E+00 -2.399132257874E+00
   30     8 O    -2.354861206034E+00 -2.432135989658E+00 -2.337570019196E+00
   31     8 O     2.426880279471E+00  9.335748668000E-03  8.509540603000E-03
   32     8 O     4.756373783855E+00  2.256207311579E+00 -7.963568001900E-02
   33     8 O    -8.797937929000E-03 -2.420698167289E+00 -1.021626121030E-01
   34     8 O     4.757924010352E+00  3.965426231999E-03  2.222197942146E+00
   35     8 O     7.085737601372E+00  2.241732838065E+00  2.226622420314E+00
   36     8 O     2.331905906412E+00 -2.424685439183E+00  2.427279588731E+00
   37     8 O    -7.789116858000E-02  2.323843530401E+00  2.192972347000E-03
   38     8 O     2.332958581990E+00  4.662725840791E+00 -5.201900979100E-02
   39     8 O    -2.339802568172E+00  9.622870137400E-02 -2.641991954999E-03
   40     8 O     2.334954339057E+00  2.330332164573E+00  2.337985135645E+00
   41     8 O     4.676964971233E+00  4.664307988691E+00  2.402243192353E+00
   42     8 O    -4.031782667000E-03  7.194634649999E-04  2.334147050150E+00
   43     8 O     4.678137190380E+00  2.406587908083E+00  4.743177572716E+00
   44     8 O     6.990848008584E+00  4.652308295649E+00  4.657833769117E+00
   45     8 O     2.341989515158E+00 -9.504909676300E-02  4.644525824447E+00
   46     8 O    -3.821329614000E-03  4.747348830059E+00  2.444822276920E+00
   47     8 O     2.237308937475E+00  7.108147767399E+00  2.336840229370E+00
   48     8 O    -2.432246260458E+00  2.336150692858E+00  2.296233313580E+00
   49     8 O     2.356935149312E+00  4.668976305616E+00  4.674755985927E+00
   50     8 O     4.680575585874E+00  7.013587315711E+00  4.779454692284E+00
   51     8 O    -1.103491271920E-01  2.438081031538E+00  4.747291161334E+00
   52     8 O     4.678577171726E+00  4.585768904457E+00  6.867135231204E+00
   53     8 O     6.912836118506E+00  7.111002769131E+00  7.075875133467E+00
   54     8 O     2.356695657698E+00  2.335730100692E+00  7.077187562619E+00
 WARNING **** CRYSTA **** TESTGEOM  DIRECTIVE - GEOMETRY EDITING COMPLETE
 TTTTTTTTTTTTTTTTTTTTTTTTTTTTTT END         TELAPSE        0.01 TCPU        0.01
 EEEEEEEEEE TERMINATION  DATE 10 03 2023 TIME 10:29:17.2
Fri 10 Mar 2023 10:29:17 GMT
Contents of temporary directory:
total 8
-rw-r--r--  1 brunocamino  admin  4027 10 Mar 10:29 fort.34
SCF abnormal end - no wf written in fort.9
geometry input file fort.34 saved as /Users/brunocamino/Desktop/Imperial/cmsg_icl/solid-solutions/./data/crystal/testgeom_opt/CaMgO_testgeom_1120.gui
temporary directory /Users/brunocamino/crystal/tmp removed
