date Mon 20 Feb 2023 15:08:00 GMT
hostname MacBook-Pro-8.local
system Darwin MacBook-Pro-8.local 21.6.0 Darwin Kernel Version 21.6.0: Mon Aug 22 20:20:05 PDT 2022; root:xnu-8020.140.49~2/RELEASE_ARM64_T8101 arm64
user brunocamino
output data in /Users/brunocamino/Desktop/Imperial/cmsg_icl/solid-solutions/data/crystal/lts/CaMgO_cell_0.out
crystal executable in /Users/brunocamino/crystal
input data in /Users/brunocamino/Desktop/Imperial/cmsg_icl/solid-solutions/data/crystal/lts/CaMgO_cell_0.d12
temporary directory /Users/brunocamino/crystal/tmp
external geometry input from /Users/brunocamino/Desktop/Imperial/cmsg_icl/solid-solutions/data/crystal/lts/CaMgO_cell_0.gui
external geometry input saved in /Users/brunocamino/Desktop/Imperial/cmsg_icl/solid-solutions/data/crystal/lts/CaMgO_cell_0_inp.gui
Prova LTS cubico
EXTERNAL
SCELCONF
1 0 0
0 1 0
0 0 1
EXTPRT
CONFCOUNT
7 
1 2 5 9 10 11 15                            
ONLYCOMP
1
15 
END

         
 *******************************************************************************
 *                                                                             *
 *                               CRYSTAL17                                     *
 *                      public : 1.0.1 - Feb 1st, 2017                         *
 *                       HTTP://WWW.CRYSTAL.UNITO.IT                           *
 *                                                                             *
 *                              MAIN AUTHORS                                   *
 *                                                                             *
 *  R. DOVESI(1,11), V.R. SAUNDERS(2), C. ROETTI(1,11), R. ORLANDO(1,11),      *
 *  C.M. ZICOVICH-WILSON(1,3), F. PASCALE(4), B. CIVALLERI(1,11),              *
 *  K. DOLL(5), N.M. HARRISON(2,6), I.J. BUSH(7), Ph. D'ARCO(8),               *
 *  M. LLUNELL(9), M. CAUSA'(10), Y. NOEL(8), L. MASCHIO(1,11), A. ERBA(1,11)  *
 *  M. RE'RAT(14), S. CASASSA(1,11)                                            *
 *                                                                             *
 *        CONTRIBUTIONS TO THE CODE HAVE ALSO BEEN GIVEN BY                    *
 *                                                                             *
 *  M. FERRABONE(1,11), M. DE LA PIERRE(1,11), M. FERRERO(1,11),               *
 *  J. BAIMA(1,11), E. ALBANESE(1,11), M.F. PEINTINGER(12), R. BAST(13),       *
 *  B. KIRTMAN(15), V. LACIVITA(1,11), R. DEMICHELIS(1,16)                     *
 *  G. BRANDEBURG(17), S. SALUSTRO(1,11), G. SANSONE(1,11)                     *
 *  M.T. RUGGIERO(18)                                                          *
 *                                                                             *
 * (1) THEORETICAL CHEMISTRY GROUP - UNIVERSITA' DI TORINO - TORINO (ITALY)    *

 * (2) COMPUTATIONAL SCIENCE & ENGINEERING DEPARTMENT - STFC DARESBURY (UK)    *
 * (3) UNIVERSIDAD AUTONOMA DEL ESTADO DE MORELOS - CUERNAVACA (MEXICO)        *
 * (4) UNIVERSITE' DE LORRAINE - NANCY (FRANCE)                                *
 * (5) UNIVERSITAET STUTTGART- STUTTGART (GERMANY)                             *
 * (6) IMPERIAL COLLEGE - LONDON (UK)                                          *
 * (7) OXFORD E-RESEARCH CENTRE - OXFORD (UK)                                  *
 * (8) UPMC - SORBONNE UNIVERSITES - PARIS (FRANCE)                            *
 * (9) UNIVERSIDAD DE BARCELONA - BARCELONA (SPAIN)                            *
 *(10) UNIVERSITA' DI NAPOLI "FEDERICO II" - NAPOLI (ITALY)                    *
 *(11) NIS - NANOSTRUCTURED INTERFACES AND SURFACES - TORINO (ITALY)           *
 *(12) MPI FUER CHEMISCHE ENERGIEKONVERSION - MUELHEIM AN DER RUHR (GERMANY)   *
 *(13) UNIVERSITY OF TROMSO - TROMSO (NORWAY)                                  *
 *(14) UNIVERSITE' DE PAU ET DES PAYS DE L'ADOUR - PAU (FRANCE)                *
 *(15) UNIVERSITY OF CALIFORNIA SANTA BARBARA - SANTA BARBARA (USA)            *
 *(16) CURTIN UNIVERSITY - PERTH (AUSTRALIA)                                   *
 *(17) UNIVERSITY COLLEGE LONDON - LONDON (UK)                                 *
 *(18) CAMBRIDGE UNIVERSITY - CAMBRIDGE (UK)                                   *
 *                                                                             *
 *******************************************************************************
 EEEEEEEEEE STARTING  DATE 20 02 2023 TIME 15:08:00.9
 Prova LTS cubico                                                                

 GEOMETRY INPUT FROM EXTERNAL FILE (FORTRAN UNIT 34)
 3D - CRYSTAL 

 *******************************************************************************
 LATTICE PARAMETERS  (ANGSTROMS AND DEGREES) - PRIMITIVE CELL
       A          B          C        ALPHA      BETA     GAMMA        VOLUME
    9.93136    9.95316    9.95316    60.00000  59.92735  59.92735    694.925244
 INFORMATION **** CHKGRP **** SPGR WITH NO INVERSION

 NUMBER OF IRREDUCIBLE ATOMS IN THE CELL:   20

 CARTESIAN COORDINATES (ANGSTROM) - IRREDUCIBLE ATOMS AND SYMMETRY RELATED

 AT.IRR.  AT  AT.N.          X                   Y                   Z
     1     1    20    0.000000000000E+00  0.000000000000E+00  0.000000000000E+00
     2     2    20    2.345982876902E+00  2.345982876902E+00  0.000000000000E+00
     2     3    20   -2.345982876902E+00 -2.345982876902E+00  0.000000000000E+00
     2     4    20    2.345982876902E+00  0.000000000000E+00  2.345982876902E+00
     5     5    20    4.691965753807E+00  2.345982876903E+00  2.345982876903E+00
     2     6    20    0.000000000000E+00 -2.345982876902E+00  2.345982876902E+00
     2     7    20   -2.345982876902E+00  0.000000000000E+00 -2.345982876902E+00
     2     8    20    0.000000000000E+00  2.345982876902E+00 -2.345982876902E+00
     9     9    20   -4.691965753807E+00 -2.345982876903E+00 -2.345982876903E+00
    10    10    20    5.141937121000E-03  2.340840939781E+00  2.340840939781E+00
    11    11    20    2.351124814025E+00  4.686823816685E+00  2.340840939781E+00
    10    12    20   -2.340840939781E+00 -5.141937121000E-03  2.340840939781E+00
    11    13    20    2.351124814025E+00  2.340840939781E+00  4.686823816685E+00
    11    14    20    4.697107690929E+00  4.686823816685E+00  4.686823816685E+00
    15    15    20    5.141937121000E-03 -5.141937121000E-03  4.686823816684E+00
    10    16    20   -2.340840939781E+00  2.340840939781E+00 -5.141937121000E-03
    15    17    20    5.141937121000E-03  4.686823816684E+00 -5.141937121000E-03
    15    18    20   -4.686823816684E+00 -5.141937121000E-03 -5.141937121000E-03
    19    19    12   -5.141937121000E-03 -2.340840939781E+00 -2.340840939781E+00
    19    20    12    2.340840939781E+00  5.141937121000E-03 -2.340840939781E+00
    21    21    12   -2.351124814025E+00 -4.686823816685E+00 -2.340840939781E+00
    19    22    12    2.340840939781E+00 -2.340840939781E+00  5.141937121000E-03
    23    23    12    4.686823816684E+00  5.141937121000E-03  5.141937121000E-03
    23    24    12   -5.141937121000E-03 -4.686823816684E+00  5.141937121000E-03
    21    25    12   -2.351124814025E+00 -2.340840939781E+00 -4.686823816685E+00
    23    26    12   -5.141937121000E-03  5.141937121000E-03 -4.686823816684E+00
    21    27    12   -4.697107690929E+00 -4.686823816685E+00 -4.686823816685E+00
    28    28     8   -2.570968561000E-03  2.570968561000E-03 -2.343411908342E+00
    29    29     8    2.343411908343E+00  2.348553845464E+00 -2.343411908342E+00
    29    30     8   -2.348553845464E+00 -2.343411908342E+00 -2.343411908342E+00
    28    31     8    2.343411908342E+00  2.570968561000E-03  2.570968561000E-03
    32    32     8    4.689394785246E+00  2.348553845465E+00  2.570968561000E-03
    28    33     8   -2.570968561000E-03 -2.343411908342E+00  2.570968561000E-03
    32    34     8   -2.348553845464E+00  2.570968561000E-03 -4.689394785245E+00
    32    35     8    7.035377662149E+00  2.348553845465E+00  2.348553845465E+00
    29    36     8    2.343411908343E+00 -2.343411908342E+00  2.348553845464E+00
    37    37     8    2.570968561000E-03  2.343411908342E+00 -2.570968561000E-03
    38    38     8    2.348553845464E+00  4.689394785245E+00 -2.570968561000E-03
    37    39     8   -2.343411908342E+00 -2.570968561000E-03 -2.570968561000E-03
    40    40     8    2.348553845463E+00  2.343411908342E+00  2.343411908342E+00
    40    41     8    4.694536722367E+00  4.689394785246E+00  2.343411908342E+00
    37    42     8    2.570968561000E-03 -2.570968561000E-03  2.343411908342E+00
    40    43     8    4.694536722367E+00  2.343411908342E+00  4.689394785246E+00
    38    44     8    7.040519599271E+00  4.689394785245E+00  4.689394785245E+00
    38    45     8    2.348553845464E+00 -2.570968561000E-03  4.689394785245E+00
    46    46     8    7.712905682000E-03  4.684252848121E+00  2.338269971219E+00
    46    47     8    2.338269971222E+00  7.712905685000E-03 -4.684252848121E+00
    48    48     8   -2.353695782587E+00 -4.684252848123E+00 -4.684252848123E+00
    49    49     8    2.353695782583E+00  4.684252848120E+00  4.684252848120E+00
    46    50     8   -2.353695782586E+00 -7.030235725025E+00 -2.338269971219E+00
    46    51     8   -7.712905682000E-03 -4.684252848121E+00 -2.338269971219E+00
    46    52     8   -2.338269971222E+00  4.684252848121E+00 -7.712905685000E-03
    53    53     8    7.030235725028E+00  7.712905685000E-03  7.712905685000E-03
    46    54     8   -4.699678659488E+00 -4.684252848121E+00 -7.030235725025E+00

 SYMMETRY CHANGED DURING OLD RUN :  INFORMATION ON SPACE GROUP LOST 
 NUMBER OF SYMMETRY OPERATORS         :    6
 *******************************************************************************
 LATTICE PARAMETERS (ANGSTROMS AND DEGREES) - BOHR = 0.5291772083 ANGSTROM
 PRIMITIVE CELL - CENTRING CODE 1/0 VOLUME=   694.925244 - DENSITY  3.267 g/cm^3
         A              B              C           ALPHA      BETA       GAMMA 
     9.93135899     9.95316240     9.95316240    60.000000  59.927350  59.927350
 *******************************************************************************
 ATOMS IN THE ASYMMETRIC UNIT   20 - ATOMS IN THE UNIT CELL:   54
     ATOM                 X/A                 Y/B                 Z/C    
 *******************************************************************************
      1 T  20 CA    0.000000000000E+00  0.000000000000E+00  0.000000000000E+00
      2 T  20 CA    0.000000000000E+00  0.000000000000E+00  3.333333333331E-01
      3 F  20 CA    0.000000000000E+00  0.000000000000E+00 -3.333333333331E-01
      4 F  20 CA    0.000000000000E+00  3.333333333331E-01  0.000000000000E+00
      5 T  20 CA   -7.127631818094E-14  3.333333333334E-01  3.333333333334E-01
      6 F  20 CA    0.000000000000E+00  3.333333333331E-01 -3.333333333331E-01
      7 F  20 CA    0.000000000000E+00 -3.333333333331E-01  0.000000000000E+00
      8 F  20 CA    0.000000000000E+00 -3.333333333331E-01  3.333333333331E-01
      9 T  20 CA    7.127631818094E-14 -3.333333333334E-01 -3.333333333334E-01
     10 T  20 CA    3.333333333335E-01 -1.437738816890E-14 -1.437738816890E-14
     11 T  20 CA    3.333333333335E-01 -1.434963259328E-14  3.333333333334E-01
     12 F  20 CA    3.333333333335E-01 -1.437738816890E-14 -3.333333333332E-01
     13 F  20 CA    3.333333333335E-01  3.333333333334E-01 -1.437738816890E-14
     14 F  20 CA    3.333333333335E-01  3.333333333334E-01  3.333333333334E-01
     15 T  20 CA    3.333333333336E-01  3.333333333332E-01 -3.333333333332E-01
     16 F  20 CA    3.333333333335E-01 -3.333333333332E-01 -1.437738816890E-14
     17 F  20 CA    3.333333333336E-01 -3.333333333332E-01  3.333333333332E-01
     18 F  20 CA    3.333333333336E-01 -3.333333333332E-01 -3.333333333332E-01
     19 T  12 MG   -3.333333333335E-01  1.437738816890E-14  1.437738816890E-14
     20 F  12 MG   -3.333333333335E-01  1.437738816890E-14  3.333333333332E-01
     21 T  12 MG   -3.333333333335E-01  1.434963259328E-14 -3.333333333334E-01
     22 F  12 MG   -3.333333333335E-01  3.333333333332E-01  1.437738816890E-14
     23 T  12 MG   -3.333333333336E-01  3.333333333332E-01  3.333333333332E-01
     24 F  12 MG   -3.333333333336E-01  3.333333333332E-01 -3.333333333332E-01
     25 F  12 MG   -3.333333333335E-01 -3.333333333334E-01  1.437738816890E-14
     26 F  12 MG   -3.333333333336E-01 -3.333333333332E-01  3.333333333332E-01
     27 F  12 MG   -3.333333333335E-01 -3.333333333334E-01 -3.333333333334E-01
     28 T   8 O    -1.666666666667E-01 -1.666666666667E-01  1.666666666666E-01
     29 T   8 O    -1.666666666668E-01 -1.666666666666E-01  5.000000000000E-01
     30 F   8 O    -1.666666666667E-01 -1.666666666667E-01 -1.666666666667E-01
     31 F   8 O    -1.666666666667E-01  1.666666666666E-01  1.666666666666E-01
     32 T   8 O    -1.666666666667E-01  1.666666666666E-01 -5.000000000000E-01
     33 F   8 O    -1.666666666667E-01  1.666666666666E-01 -1.666666666667E-01
     34 F   8 O    -1.666666666667E-01 -5.000000000000E-01  1.666666666666E-01
     35 F   8 O    -1.666666666666E-01  5.000000000000E-01  5.000000000000E-01
     36 F   8 O    -1.666666666668E-01  5.000000000000E-01 -1.666666666666E-01
     37 T   8 O     1.666666666667E-01 -1.666666666666E-01  1.666666666667E-01
     38 T   8 O     1.666666666667E-01 -1.666666666666E-01  5.000000000000E-01
     39 F   8 O     1.666666666667E-01 -1.666666666666E-01 -1.666666666666E-01
     40 T   8 O     1.666666666668E-01  1.666666666666E-01  1.666666666666E-01
     41 F   8 O     1.666666666668E-01  1.666666666666E-01 -5.000000000000E-01
     42 F   8 O     1.666666666667E-01  1.666666666667E-01 -1.666666666666E-01
     43 F   8 O     1.666666666668E-01 -5.000000000000E-01  1.666666666666E-01
     44 F   8 O     1.666666666666E-01 -5.000000000000E-01 -5.000000000000E-01
     45 F   8 O     1.666666666667E-01  5.000000000000E-01 -1.666666666666E-01
     46 T   8 O     5.000000000000E-01 -1.666666666666E-01  1.666666666666E-01
     47 F   8 O    -5.000000000000E-01 -1.666666666666E-01  5.000000000000E-01
     48 T   8 O     4.999999999999E-01 -1.666666666668E-01 -1.666666666668E-01
     49 T   8 O     4.999999999999E-01  1.666666666665E-01  1.666666666665E-01
     50 F   8 O    -5.000000000000E-01  1.666666666666E-01  5.000000000000E-01
     51 F   8 O    -5.000000000000E-01  1.666666666666E-01 -1.666666666666E-01
     52 F   8 O     5.000000000000E-01 -5.000000000000E-01  1.666666666666E-01
     53 T   8 O    -5.000000000000E-01  5.000000000000E-01  5.000000000000E-01
     54 F   8 O    -5.000000000000E-01  5.000000000000E-01 -1.666666666666E-01

 T = ATOM BELONGING TO THE ASYMMETRIC UNIT
 *******************************************************************************
 * GEOMETRY EDITING - INPUT COORDINATES ARE GIVEN IN ANGSTROM         
 *******************************************************************************

 GEOMETRY NOW FULLY CONSISTENT WITH THE GROUP

 GCALCO - MAX INDICES DIRECT LATTICE VECTOR    15    14    14
 NO.OF VECTORS CREATED 6999 STARS  522 RMAX   105.30144 BOHR

 *******************************************************************************
 * SUPERCELL OPTION
 *******************************************************************************


        EXPANSION MATRIX OF PRIMITIVE CELL
 E1     1.000     0.000     0.000
 E2     0.000     1.000     0.000
 E3     0.000     0.000     1.000

 NUMBER OF ATOMS PER SUPERCELL    54

        DIRECT LATTICE VECTORS COMPONENTS (ANGSTROM)
 B1     0.015     7.023     7.023
 B2     7.038     0.000     7.038
 B3     7.038     7.038     0.000

 LATTICE PARAMETERS  (ANGSTROM AND DEGREES)
       A          B          C         ALPHA     BETA     GAMMA        VOLUME
    9.93136    9.95316    9.95316    60.00000  59.92735  59.92735    694.925244


 **** ATOMS BELONGING TO THE SUPERCELL
 LABEL AT.NO.      COORDINATES (ANGSTROM AND FRACTIONAL)
     1    20     0.0000     0.0000     0.0000     0.0000     0.0000     0.0000
     2    20     2.3460     2.3460     0.0000     0.0000     0.0000     0.3333
     3    20    -2.3460    -2.3460    -0.0000    -0.0000    -0.0000    -0.3333
     4    20     2.3460     0.0000     2.3460     0.0000     0.3333     0.0000
     5    20     4.6920     2.3460     2.3460    -0.0000     0.3333     0.3333
     6    20     0.0000    -2.3460     2.3460     0.0000     0.3333    -0.3333
     7    20    -2.3460    -0.0000    -2.3460     0.0000    -0.3333     0.0000
     8    20     0.0000     2.3460    -2.3460     0.0000    -0.3333     0.3333
     9    20    -4.6920    -2.3460    -2.3460     0.0000    -0.3333    -0.3333
    10    20     0.0051     2.3408     2.3408     0.3333    -0.0000    -0.0000
    11    20     2.3511     4.6868     2.3408     0.3333    -0.0000     0.3333
    12    20    -2.3408    -0.0051     2.3408     0.3333    -0.0000    -0.3333
    13    20     2.3511     2.3408     4.6868     0.3333     0.3333    -0.0000
    14    20     4.6971     4.6868     4.6868     0.3333     0.3333     0.3333
    15    20     0.0051    -0.0051     4.6868     0.3333     0.3333    -0.3333
    16    20    -2.3408     2.3408    -0.0051     0.3333    -0.3333    -0.0000
    17    20     0.0051     4.6868    -0.0051     0.3333    -0.3333     0.3333
    18    20    -4.6868    -0.0051    -0.0051     0.3333    -0.3333    -0.3333
    19    12    -0.0051    -2.3408    -2.3408    -0.3333     0.0000     0.0000
    20    12     2.3408     0.0051    -2.3408    -0.3333     0.0000     0.3333
    21    12    -2.3511    -4.6868    -2.3408    -0.3333     0.0000    -0.3333
    22    12     2.3408    -2.3408     0.0051    -0.3333     0.3333     0.0000
    23    12     4.6868     0.0051     0.0051    -0.3333     0.3333     0.3333
    24    12    -0.0051    -4.6868     0.0051    -0.3333     0.3333    -0.3333
    25    12    -2.3511    -2.3408    -4.6868    -0.3333    -0.3333     0.0000
    26    12    -0.0051     0.0051    -4.6868    -0.3333    -0.3333     0.3333
    27    12    -4.6971    -4.6868    -4.6868    -0.3333    -0.3333    -0.3333
    28     8    -0.0026     0.0026    -2.3434    -0.1667    -0.1667     0.1667
    29     8     2.3434     2.3486    -2.3434    -0.1667    -0.1667     0.5000
    30     8    -2.3486    -2.3434    -2.3434    -0.1667    -0.1667    -0.1667
    31     8     2.3434     0.0026     0.0026    -0.1667     0.1667     0.1667
    32     8     4.6894     2.3486     0.0026    -0.1667     0.1667     0.5000
    33     8    -0.0026    -2.3434     0.0026    -0.1667     0.1667    -0.1667
    34     8     4.6894     0.0026     2.3486    -0.1667     0.5000     0.1667
    35     8     7.0354     2.3486     2.3486    -0.1667     0.5000     0.5000
    36     8     2.3434    -2.3434     2.3486    -0.1667     0.5000    -0.1667
    37     8     0.0026     2.3434    -0.0026     0.1667    -0.1667     0.1667
    38     8     2.3486     4.6894    -0.0026     0.1667    -0.1667     0.5000
    39     8    -2.3434    -0.0026    -0.0026     0.1667    -0.1667    -0.1667
    40     8     2.3486     2.3434     2.3434     0.1667     0.1667     0.1667
    41     8     4.6945     4.6894     2.3434     0.1667     0.1667     0.5000
    42     8     0.0026    -0.0026     2.3434     0.1667     0.1667    -0.1667
    43     8     4.6945     2.3434     4.6894     0.1667     0.5000     0.1667
    44     8     7.0405     4.6894     4.6894     0.1667     0.5000     0.5000
    45     8     2.3486    -0.0026     4.6894     0.1667     0.5000    -0.1667
    46     8    -0.0077    -2.3383    -4.6843    -0.5000    -0.1667     0.1667
    47     8    -4.6997    -7.0302    -4.6843    -0.5000    -0.1667    -0.5000
    48     8    -2.3537    -4.6843    -4.6843    -0.5000    -0.1667    -0.1667
    49     8     2.3383    -2.3383    -2.3383    -0.5000     0.1667     0.1667
    50     8     4.6843     0.0077    -2.3383    -0.5000     0.1667     0.5000
    51     8    -0.0077    -4.6843    -2.3383    -0.5000     0.1667    -0.1667
    52     8     4.6843    -2.3383     0.0077    -0.5000     0.5000     0.1667
    53     8     7.0302     0.0077     0.0077    -0.5000     0.5000     0.5000
    54     8    -4.6997    -4.6843    -7.0302    -0.5000    -0.5000    -0.1667

 **************************** SUPERCELL GENERATED ****************************

 CONSTRUCTION OF SUPERCELL PRODUCT GROUP


     SUPERCELL MATRIX

  1.00000 0.00000 0.00000
  0.00000 1.00000 0.00000
  0.00000 0.00000 1.00000


     INVERSE SUPERCELL MATRIX

  1.00000 0.00000 0.00000
  0.00000 1.00000 0.00000
  0.00000 0.00000 1.00000


 LABEL AT.NO.      COORDINATES (ANGSTROM)
     1    20     0.0000     0.0000     0.0000
     2    20     2.3460     2.3460     0.0000
     3    20    -2.3460    -2.3460    -0.0000
     4    20     2.3460     0.0000     2.3460
     5    20     4.6920     2.3460     2.3460
     6    20     0.0000    -2.3460     2.3460
     7    20    -2.3460    -0.0000    -2.3460
     8    20     0.0000     2.3460    -2.3460
     9    20    -4.6920    -2.3460    -2.3460
    10    20     0.0051     2.3408     2.3408
    11    20     2.3511     4.6868     2.3408
    12    20    -2.3408    -0.0051     2.3408
    13    20     2.3511     2.3408     4.6868
    14    20     4.6971     4.6868     4.6868
    15    20     0.0051    -0.0051     4.6868
    16    20    -2.3408     2.3408    -0.0051
    17    20     0.0051     4.6868    -0.0051
    18    20    -4.6868    -0.0051    -0.0051
    19    12    -0.0051    -2.3408    -2.3408
    20    12     2.3408     0.0051    -2.3408
    21    12    -2.3511    -4.6868    -2.3408
    22    12     2.3408    -2.3408     0.0051
    23    12     4.6868     0.0051     0.0051
    24    12    -0.0051    -4.6868     0.0051
    25    12    -2.3511    -2.3408    -4.6868
    26    12    -0.0051     0.0051    -4.6868
    27    12    -4.6971    -4.6868    -4.6868
    28     8    -0.0026     0.0026    -2.3434
    29     8     2.3434     2.3486    -2.3434
    30     8    -2.3486    -2.3434    -2.3434
    31     8     2.3434     0.0026     0.0026
    32     8     4.6894     2.3486     0.0026
    33     8    -0.0026    -2.3434     0.0026
    34     8     4.6894     0.0026     2.3486
    35     8     7.0354     2.3486     2.3486
    36     8     2.3434    -2.3434     2.3486
    37     8     0.0026     2.3434    -0.0026
    38     8     2.3486     4.6894    -0.0026
    39     8    -2.3434    -0.0026    -0.0026
    40     8     2.3486     2.3434     2.3434
    41     8     4.6945     4.6894     2.3434
    42     8     0.0026    -0.0026     2.3434
    43     8     4.6945     2.3434     4.6894
    44     8     7.0405     4.6894     4.6894
    45     8     2.3486    -0.0026     4.6894
    46     8    -0.0077    -2.3383    -4.6843
    47     8    -4.6997    -7.0302    -4.6843
    48     8    -2.3537    -4.6843    -4.6843
    49     8     2.3383    -2.3383    -2.3383
    50     8     4.6843     0.0077    -2.3383
    51     8    -0.0077    -4.6843    -2.3383
    52     8     4.6843    -2.3383     0.0077
    53     8     7.0302     0.0077     0.0077
    54     8    -4.6997    -4.6843    -7.0302

 *****    6 SYMMOPS - TRANSLATORS IN ANGSTROM
 ***** MATRICES AND TRANSLATORS IN THE CARTESIAN REFERENCE FRAME

 ORDER   : ORDER OF THE OPERATOR

 TRANSLA : REAL TRANSLATION (WITHOUT ORIGIN SHIFT) IN CARTESIAN COORDINATES

 uvw/hkl : ORIENTATION OF THE OPERATOR IN CARTESIAN COORDINATES

 LOCATED : ORIGIN OF THE OPERATOR IN CARTESIAN COORDINATES

   NO.   1 INVERSE   1    ORDER   1        NO.   2 INVERSE   3    ORDER   3
    1.000   0.000   0.000     0.000         0.000   0.000  -1.000     0.000
    0.000   1.000   0.000     0.000        -1.000   0.000   0.000     0.000
    0.000   0.000   1.000     0.000         0.000   1.000   0.000     0.000
             OPERATION E(   1)                       OPERATION C(   3)
 DETERMINANT 1.; ROTATION(DEG)   0.      DETERMINANT 1.; ROTATION(DEG) 120.
 TRANSLA (  0.000    0.000    0.000)     TRANSLA (  0.000    0.000    0.000)
 uvw/hkl (  0.000    0.000    0.000)     uvw/hkl ( -1.000    1.000    1.000)
 LOCATED (  0.000    0.000    0.000)     LOCATED (  0.000    0.000    0.000)

   NO.   3 INVERSE   2    ORDER   3        NO.   4 INVERSE   4    ORDER   2
    0.000  -1.000   0.000     0.000         0.000  -1.000   0.000     0.000
    0.000   0.000   1.000     0.000        -1.000   0.000   0.000     0.000
   -1.000   0.000   0.000     0.000         0.000   0.000   1.000     0.000
             OPERATION C(   3)                       OPERATION M(   2)
 DETERMINANT 1.; ROTATION(DEG) 120.      DETERMINANT-1.; ROTATION(DEG)   0.
 TRANSLA (  0.000    0.000    0.000)     TRANSLA (  0.000    0.000    0.000)
 uvw/hkl ( -1.000    1.000    1.000)     uvw/hkl (  1.000    1.000    0.000)
 LOCATED (  0.000    0.000    0.000)     LOCATED (  0.000    0.000    0.000)

   NO.   5 INVERSE   5    ORDER   2        NO.   6 INVERSE   6    ORDER   2
    1.000   0.000   0.000     0.000         0.000   0.000  -1.000     0.000
    0.000   0.000   1.000     0.000         0.000   1.000   0.000     0.000
    0.000   1.000   0.000     0.000        -1.000   0.000   0.000     0.000
             OPERATION M(   2)                       OPERATION M(   2)
 DETERMINANT-1.; ROTATION(DEG)   0.      DETERMINANT-1.; ROTATION(DEG)   0.
 TRANSLA (  0.000    0.000    0.000)     TRANSLA (  0.000    0.000    0.000)
 uvw/hkl (  0.000   -1.000    1.000)     uvw/hkl (  1.000    0.000    1.000)
 LOCATED (  0.000    0.000    0.000)     LOCATED (  0.000    0.000    0.000)

 GEOMETRY FOR WAVE FUNCTION - DIMENSIONALITY OF THE SYSTEM    3
 (NON PERIODIC DIRECTION: LATTICE PARAMETER FORMALLY SET TO 500)
 *******************************************************************************
 LATTICE PARAMETERS (ANGSTROMS AND DEGREES) - BOHR = 0.5291772083 ANGSTROM
 PRIMITIVE CELL - CENTRING CODE 1/0 VOLUME=   694.925244 - DENSITY  3.267 g/cm^3
         A              B              C           ALPHA      BETA       GAMMA 
     9.93135899     9.95316240     9.95316240    60.000000  59.927350  59.927350
 *******************************************************************************
 ATOMS IN THE ASYMMETRIC UNIT   20 - ATOMS IN THE UNIT CELL:   54
     ATOM                 X/A                 Y/B                 Z/C    
 *******************************************************************************
      1 T  20 CA    0.000000000000E+00  0.000000000000E+00  0.000000000000E+00
      2 T  20 CA    5.594131986039E-21  5.569609492538E-21  3.333333333331E-01
      3 F  20 CA   -8.391197979058E-21 -8.354414238807E-21 -3.333333333331E-01
      4 F  20 CA    0.000000000000E+00  3.333333333331E-01  0.000000000000E+00
      5 T  20 CA   -7.138734048340E-14  3.333333333334E-01  3.333333333334E-01
      6 F  20 CA    0.000000000000E+00  3.333333333331E-01 -3.333333333331E-01
      7 F  20 CA    0.000000000000E+00 -3.333333333331E-01  0.000000000000E+00
      8 F  20 CA    0.000000000000E+00 -3.333333333331E-01  3.333333333331E-01
      9 T  20 CA    7.138734048340E-14 -3.333333333334E-01 -3.333333333334E-01
     10 T  20 CA    3.333333333335E-01 -1.437738816890E-14 -1.437738816890E-14
     11 T  20 CA    3.333333333335E-01 -1.434963259328E-14  3.333333333334E-01
     12 F  20 CA    3.333333333335E-01 -1.434963259328E-14 -3.333333333332E-01
     13 F  20 CA    3.333333333335E-01  3.333333333334E-01 -1.432187701766E-14
     14 F  20 CA    3.333333333335E-01  3.333333333334E-01  3.333333333334E-01
     15 T  20 CA    3.333333333336E-01  3.333333333332E-01 -3.333333333332E-01
     16 F  20 CA    3.333333333335E-01 -3.333333333332E-01 -1.437549081509E-14
     17 F  20 CA    3.333333333336E-01 -3.333333333332E-01  3.333333333332E-01
     18 F  20 CA    3.333333333336E-01 -3.333333333332E-01 -3.333333333332E-01
     19 T  12 MG   -3.333333333335E-01  1.437738816890E-14  1.437738816890E-14
     20 F  12 MG   -3.333333333335E-01  1.434963259328E-14  3.333333333332E-01
     21 T  12 MG   -3.333333333335E-01  1.434963259328E-14 -3.333333333334E-01
     22 F  12 MG   -3.333333333335E-01  3.333333333332E-01  1.437549081509E-14
     23 T  12 MG   -3.333333333336E-01  3.333333333332E-01  3.333333333332E-01
     24 F  12 MG   -3.333333333336E-01  3.333333333332E-01 -3.333333333332E-01
     25 F  12 MG   -3.333333333335E-01 -3.333333333334E-01  1.432187701766E-14
     26 F  12 MG   -3.333333333336E-01 -3.333333333332E-01  3.333333333332E-01
     27 F  12 MG   -3.333333333335E-01 -3.333333333334E-01 -3.333333333334E-01
     28 T   8 O    -1.666666666667E-01 -1.666666666667E-01  1.666666666666E-01
     29 T   8 O    -1.666666666668E-01 -1.666666666667E-01  5.000000000000E-01
     30 F   8 O    -1.666666666668E-01 -1.666666666667E-01 -1.666666666667E-01
     31 F   8 O    -1.666666666667E-01  1.666666666666E-01  1.666666666666E-01
     32 T   8 O    -1.666666666667E-01  1.666666666666E-01  5.000000000000E-01
     33 F   8 O    -1.666666666667E-01  1.666666666666E-01 -1.666666666667E-01
     34 F   8 O    -1.666666666667E-01  5.000000000000E-01  1.666666666666E-01
     35 F   8 O    -1.666666666667E-01  5.000000000000E-01  5.000000000000E-01
     36 F   8 O    -1.666666666668E-01  5.000000000000E-01 -1.666666666667E-01
     37 T   8 O     1.666666666667E-01 -1.666666666666E-01  1.666666666667E-01
     38 T   8 O     1.666666666667E-01 -1.666666666666E-01  5.000000000000E-01
     39 F   8 O     1.666666666667E-01 -1.666666666666E-01 -1.666666666666E-01
     40 T   8 O     1.666666666668E-01  1.666666666666E-01  1.666666666666E-01
     41 F   8 O     1.666666666668E-01  1.666666666666E-01  5.000000000000E-01
     42 F   8 O     1.666666666667E-01  1.666666666667E-01 -1.666666666666E-01
     43 F   8 O     1.666666666668E-01  5.000000000000E-01  1.666666666666E-01
     44 F   8 O     1.666666666667E-01  5.000000000000E-01  5.000000000000E-01
     45 F   8 O     1.666666666667E-01  5.000000000000E-01 -1.666666666666E-01
     46 T   8 O    -5.000000000000E-01 -1.666666666666E-01  1.666666666666E-01
     47 F   8 O     5.000000000000E-01 -1.666666666666E-01 -5.000000000000E-01
     48 T   8 O    -5.000000000000E-01 -1.666666666668E-01 -1.666666666668E-01
     49 T   8 O     5.000000000000E-01  1.666666666668E-01  1.666666666668E-01
     50 F   8 O    -5.000000000000E-01  1.666666666666E-01  5.000000000000E-01
     51 F   8 O    -5.000000000000E-01  1.666666666666E-01 -1.666666666666E-01
     52 F   8 O    -5.000000000000E-01  5.000000000000E-01  1.666666666666E-01
     53 T   8 O    -5.000000000000E-01  5.000000000000E-01  5.000000000000E-01
     54 F   8 O     5.000000000000E-01 -5.000000000000E-01 -1.666666666666E-01

 T = ATOM BELONGING TO THE ASYMMETRIC UNIT

 ****    6 SYMMOPS - TRANSLATORS IN FRACTIONAL UNITS
 **** MATRICES AND TRANSLATORS IN THE CRYSTALLOGRAPHIC REFERENCE FRAME
   V INV                    ROTATION MATRICES                   TRANSLATORS
   1   1  1.00  0.00  0.00  0.00  1.00  0.00  0.00  0.00  1.00  0.00  0.00  0.00
   2   3  1.00  0.00  0.00  0.00  0.00  1.00 -1.00 -1.00 -1.00  0.00  0.00  0.00
   3   2  1.00  0.00  0.00 -1.00 -1.00 -1.00  0.00  1.00  0.00  0.00  0.00  0.00
   4   4  1.00  0.00  0.00  0.00  1.00  0.00 -1.00 -1.00 -1.00  0.00  0.00  0.00
   5   5  1.00  0.00  0.00  0.00  0.00  1.00  0.00  1.00  0.00  0.00  0.00  0.00
   6   6  1.00  0.00  0.00 -1.00 -1.00 -1.00  0.00  0.00  1.00  0.00  0.00  0.00

 DIRECT LATTICE VECTORS CARTESIAN COMPONENTS (ANGSTROM)
          X                    Y                    Z
   0.154258113636E-01   0.702252281934E+01   0.702252281934E+01
   0.703794863071E+01   0.117725361583E-18   0.703794863071E+01
   0.703794863071E+01   0.703794863071E+01   0.117725317542E-18


 CARTESIAN COORDINATES - PRIMITIVE CELL
 *******************************************************************************
 *      ATOM          X(ANGSTROM)         Y(ANGSTROM)         Z(ANGSTROM)
 *******************************************************************************
    1    20 CA    0.000000000000E+00  0.000000000000E+00  0.000000000000E+00
    2    20 CA    2.345982876902E+00  2.345982876902E+00  7.848354502796E-20
    3    20 CA   -2.345982876902E+00 -2.345982876902E+00 -1.177253175419E-19
    4    20 CA    2.345982876902E+00  3.924178719431E-20  2.345982876902E+00
    5    20 CA    4.691965753807E+00  2.345982876903E+00  2.345982876903E+00
    6    20 CA    0.000000000000E+00 -2.345982876902E+00  2.345982876902E+00
    7    20 CA   -2.345982876902E+00 -3.924178719431E-20 -2.345982876902E+00
    8    20 CA    0.000000000000E+00  2.345982876902E+00 -2.345982876902E+00
    9    20 CA   -4.691965753807E+00 -2.345982876903E+00 -2.345982876903E+00
   10    20 CA    5.141937121000E-03  2.340840939781E+00  2.340840939781E+00
   11    20 CA    2.351124814025E+00  4.686823816685E+00  2.340840939781E+00
   12    20 CA   -2.340840939781E+00 -5.141937121000E-03  2.340840939781E+00
   13    20 CA    2.351124814025E+00  2.340840939781E+00  4.686823816685E+00
   14    20 CA    4.697107690929E+00  4.686823816685E+00  4.686823816685E+00
   15    20 CA    5.141937121000E-03 -5.141937121000E-03  4.686823816684E+00
   16    20 CA   -2.340840939781E+00  2.340840939781E+00 -5.141937121000E-03
   17    20 CA    5.141937120997E-03  4.686823816684E+00 -5.141937121001E-03
   18    20 CA   -4.686823816684E+00 -5.141937121000E-03 -5.141937121000E-03
   19    12 MG   -5.141937121000E-03 -2.340840939781E+00 -2.340840939781E+00
   20    12 MG    2.340840939781E+00  5.141937121000E-03 -2.340840939781E+00
   21    12 MG   -2.351124814025E+00 -4.686823816685E+00 -2.340840939781E+00
   22    12 MG    2.340840939781E+00 -2.340840939781E+00  5.141937121000E-03
   23    12 MG    4.686823816684E+00  5.141937121000E-03  5.141937121000E-03
   24    12 MG   -5.141937120997E-03 -4.686823816684E+00  5.141937121001E-03
   25    12 MG   -2.351124814025E+00 -2.340840939781E+00 -4.686823816685E+00
   26    12 MG   -5.141937121000E-03  5.141937121000E-03 -4.686823816684E+00
   27    12 MG   -4.697107690929E+00 -4.686823816685E+00 -4.686823816685E+00
   28     8 O    -2.570968561000E-03  2.570968561000E-03 -2.343411908342E+00
   29     8 O     2.343411908343E+00  2.348553845464E+00 -2.343411908342E+00
   30     8 O    -2.348553845464E+00 -2.343411908342E+00 -2.343411908342E+00
   31     8 O     2.343411908342E+00  2.570968561000E-03  2.570968561000E-03
   32     8 O     4.689394785246E+00  2.348553845465E+00  2.570968561000E-03
   33     8 O    -2.570968561000E-03 -2.343411908342E+00  2.570968560999E-03
   34     8 O     4.689394785246E+00  2.570968560999E-03  2.348553845465E+00
   35     8 O     7.035377662149E+00  2.348553845465E+00  2.348553845465E+00
   36     8 O     2.343411908343E+00 -2.343411908342E+00  2.348553845464E+00
   37     8 O     2.570968561000E-03  2.343411908342E+00 -2.570968561000E-03
   38     8 O     2.348553845464E+00  4.689394785245E+00 -2.570968561000E-03
   39     8 O    -2.343411908342E+00 -2.570968561000E-03 -2.570968561000E-03
   40     8 O     2.348553845463E+00  2.343411908342E+00  2.343411908342E+00
   41     8 O     4.694536722367E+00  4.689394785246E+00  2.343411908342E+00
   42     8 O     2.570968561000E-03 -2.570968561000E-03  2.343411908342E+00
   43     8 O     4.694536722367E+00  2.343411908342E+00  4.689394785246E+00
   44     8 O     7.040519599271E+00  4.689394785245E+00  4.689394785245E+00
   45     8 O     2.348553845464E+00 -2.570968561000E-03  4.689394785245E+00
   46     8 O    -7.712905681600E-03 -2.338269971219E+00 -4.684252848121E+00
   47     8 O    -4.699678659488E+00 -7.030235725025E+00 -4.684252848121E+00
   48     8 O    -2.353695782587E+00 -4.684252848123E+00 -4.684252848123E+00
   49     8 O     2.338269971224E+00 -2.338269971217E+00 -2.338269971217E+00
   50     8 O     4.684252848124E+00  7.712905685000E-03 -2.338269971219E+00
   51     8 O    -7.712905681600E-03 -4.684252848121E+00 -2.338269971219E+00
   52     8 O     4.684252848124E+00 -2.338269971219E+00  7.712905685000E-03
   53     8 O     7.030235725028E+00  7.712905685000E-03  7.712905685000E-03
   54     8 O    -4.699678659488E+00 -4.684252848121E+00 -7.030235725025E+00


 *********************************************************************
 * ***************************************************************** *
 * *                                                               * *
 * *       TREATMENT OF DISORDERED SYSTEMS / SOLID SOLUTIONS       * *
 * *                   USING GROUP ACTION THEORY                   * *
 * *                                                               * *
 * *  1. INTERACTION LIST (OPTIONAL)                               * *
 * *  2. CONFIGURATION ANALYSIS                                    * *
 * *                                                               * *
 * *  S. Mustapha, Ph. D'Arco, M. De La Pierre, Y. Noel,           * *
 * *  M. Ferrabone, R. Dovesi,                                     * *
 * *  On the use of symmetry in configurational analysis for the   * *
 * *  simulation of disordered solids                              * *
 * *  J. Phys.: Condens. Matter 25, 105401 (2013)                  * *
 * *                                                               * *
 * ***************************************************************** *
 *********************************************************************


 ATOMIC SITE SYMMETRIES: NO EQUIVALENT ATOMS

 ATOMIC SITE SYMMETRIES: NO EQUIVALENT ATOMS

 ATOMIC SITE SYMMETRIES: NO EQUIVALENT ATOMS

 GCALCO - MAX INDICES DIRECT LATTICE VECTOR    15    14    14
 NO.OF VECTORS CREATED 6999 STARS  522 RMAX   105.30144 BOHR

 ===============================================================================
                             CONFIGURATION ANALYSIS

  NUMBER OF SUBSTITUTING SPECIES :         2

  TOTAL NUMBER OF ACTIVE SITES :          18
  NUMBER OF SYMMETRY IRREDUCIBLE
  ACTIVE SITES :                           7
  LABELS OF SYMMETRY IRREDUCIBLE
  ACTIVE SITES IN UNIT CELL :              1   2   5   9  10  11  15

  TOTAL NUMBER OF SYMMETRY INDEPENDENT
  CLASSES (POLYA'S THEOREM) :          45824
  NUMBER OF COMPOSITIONS :                19
  COMPOSITION   N. OF CA ATOMS   N. OF CLASSES
       100.00               18               1
        94.44               17               7
        88.89               16              37
        83.33               15             166
        77.78               14             575
        72.22               13            1541
        66.67               12            3267
        61.11               11            5542
        55.56               10            7576
        50.00                9            8400
        44.44                8            7576
        38.89                7            5542
        33.33                6            3267
        27.78                5            1541
        22.22                4             575
        16.67                3             166
        11.11                2              37
         5.56                1               7
         0.00                0               1
  COMPOSITIONS 100.00 AND 0.00 CORRESPOND TO PURE COMPOUNDS AND ARE ALSO CALLED
  END MEMBERS
 ===============================================================================
 COMPOSITION 15 CA OVER 18       N. OF CLASSES :          166
 ===============================================================================
  CLASS :            1     MULTIPLICITY :   6     N. OF SYMM. OP. :   1
  CA   3   4   5   7   8   9  10  11  12  13  14  15  16  17  18
  --------------------------------------------------------------                
  XX   1   2   6 
 <><><><><><><><><><><><><><><><><><><><><><><><><><><><><><><><><><><>
  CLASS :            2     MULTIPLICITY :   3     N. OF SYMM. OP. :   2
  CA   4   5   6   7   8   9  10  11  12  13  14  15  16  17  18
  --------------------------------------------------------------                
  XX   1   2   3 
 <><><><><><><><><><><><><><><><><><><><><><><><><><><><><><><><><><><>
  CLASS :            3     MULTIPLICITY :   3     N. OF SYMM. OP. :   2
  CA   3   5   6   7   8   9  10  11  12  13  14  15  16  17  18
  --------------------------------------------------------------                
  XX   1   2   4 
 <><><><><><><><><><><><><><><><><><><><><><><><><><><><><><><><><><><>
  CLASS :            4     MULTIPLICITY :   3     N. OF SYMM. OP. :   2
  CA   3   4   5   6   7   9  10  11  12  13  14  15  16  17  18
  --------------------------------------------------------------                
  XX   1   2   8 
 <><><><><><><><><><><><><><><><><><><><><><><><><><><><><><><><><><><>
  CLASS :            5     MULTIPLICITY :   6     N. OF SYMM. OP. :   1
  CA   3   4   6   7   8   9  10  11  12  13  14  15  16  17  18
  --------------------------------------------------------------                
  XX   1   2   5 
 <><><><><><><><><><><><><><><><><><><><><><><><><><><><><><><><><><><>
  CLASS :            6     MULTIPLICITY :   6     N. OF SYMM. OP. :   1
  CA   3   4   5   6   7   8  10  11  12  13  14  15  16  17  18
  --------------------------------------------------------------                
  XX   1   2   9 
 <><><><><><><><><><><><><><><><><><><><><><><><><><><><><><><><><><><>
  CLASS :            7     MULTIPLICITY :   6     N. OF SYMM. OP. :   1
  CA   3   4   5   6   7   8   9  11  12  13  14  15  16  17  18
  --------------------------------------------------------------                
  XX   1   2  10 
 <><><><><><><><><><><><><><><><><><><><><><><><><><><><><><><><><><><>
  CLASS :            8     MULTIPLICITY :   6     N. OF SYMM. OP. :   1
  CA   3   4   5   6   7   8   9  10  11  13  14  15  16  17  18
  --------------------------------------------------------------                
  XX   1   2  12 
 <><><><><><><><><><><><><><><><><><><><><><><><><><><><><><><><><><><>
  CLASS :            9     MULTIPLICITY :   6     N. OF SYMM. OP. :   1
  CA   3   4   5   6   7   8   9  10  11  12  13  14  15  17  18
  --------------------------------------------------------------                
  XX   1   2  16 
 <><><><><><><><><><><><><><><><><><><><><><><><><><><><><><><><><><><>
  CLASS :           10     MULTIPLICITY :   6     N. OF SYMM. OP. :   1
  CA   3   4   5   6   7   8   9  10  12  13  14  15  16  17  18
  --------------------------------------------------------------                
  XX   1   2  11 
 <><><><><><><><><><><><><><><><><><><><><><><><><><><><><><><><><><><>
  CLASS :           11     MULTIPLICITY :   6     N. OF SYMM. OP. :   1
  CA   3   4   5   6   7   8   9  10  11  12  13  15  16  17  18
  --------------------------------------------------------------                
  XX   1   2  14 
 <><><><><><><><><><><><><><><><><><><><><><><><><><><><><><><><><><><>
  CLASS :           12     MULTIPLICITY :   6     N. OF SYMM. OP. :   1
  CA   3   4   5   6   7   8   9  10  11  12  14  15  16  17  18
  --------------------------------------------------------------                
  XX   1   2  13 
 <><><><><><><><><><><><><><><><><><><><><><><><><><><><><><><><><><><>
  CLASS :           13     MULTIPLICITY :   6     N. OF SYMM. OP. :   1
  CA   3   4   5   6   7   8   9  10  11  12  13  14  16  17  18
  --------------------------------------------------------------                
  XX   1   2  15 
 <><><><><><><><><><><><><><><><><><><><><><><><><><><><><><><><><><><>
  CLASS :           14     MULTIPLICITY :   6     N. OF SYMM. OP. :   1
  CA   3   4   5   6   7   8   9  10  11  12  13  14  15  16  17
  --------------------------------------------------------------                
  XX   1   2  18 
 <><><><><><><><><><><><><><><><><><><><><><><><><><><><><><><><><><><>
  CLASS :           15     MULTIPLICITY :   6     N. OF SYMM. OP. :   1
  CA   3   4   5   6   7   8   9  10  11  12  13  14  15  16  18
  --------------------------------------------------------------                
  XX   1   2  17 
 <><><><><><><><><><><><><><><><><><><><><><><><><><><><><><><><><><><>
  CLASS :           16     MULTIPLICITY :   1     N. OF SYMM. OP. :   6
  CA   2   3   4   6   7   8  10  11  12  13  14  15  16  17  18
  --------------------------------------------------------------                
  XX   1   5   9 
 <><><><><><><><><><><><><><><><><><><><><><><><><><><><><><><><><><><>
  CLASS :           17     MULTIPLICITY :   3     N. OF SYMM. OP. :   2
  CA   2   3   4   6   7   8   9  11  12  13  14  15  16  17  18
  --------------------------------------------------------------                
  XX   1   5  10 
 <><><><><><><><><><><><><><><><><><><><><><><><><><><><><><><><><><><>
  CLASS :           18     MULTIPLICITY :   3     N. OF SYMM. OP. :   2
  CA   2   3   4   6   7   8   9  10  12  13  14  15  16  17  18
  --------------------------------------------------------------                
  XX   1   5  11 
 <><><><><><><><><><><><><><><><><><><><><><><><><><><><><><><><><><><>
  CLASS :           19     MULTIPLICITY :   3     N. OF SYMM. OP. :   2
  CA   2   3   4   6   7   8   9  10  11  12  13  14  16  17  18
  --------------------------------------------------------------                
  XX   1   5  15 
 <><><><><><><><><><><><><><><><><><><><><><><><><><><><><><><><><><><>
  CLASS :           20     MULTIPLICITY :   3     N. OF SYMM. OP. :   2
  CA   2   3   4   5   6   7   8  11  12  13  14  15  16  17  18
  --------------------------------------------------------------                
  XX   1   9  10 
 <><><><><><><><><><><><><><><><><><><><><><><><><><><><><><><><><><><>
  CLASS :           21     MULTIPLICITY :   3     N. OF SYMM. OP. :   2
  CA   2   3   4   5   6   7   8  10  12  13  14  15  16  17  18
  --------------------------------------------------------------                
  XX   1   9  11 
 <><><><><><><><><><><><><><><><><><><><><><><><><><><><><><><><><><><>
  CLASS :           22     MULTIPLICITY :   3     N. OF SYMM. OP. :   2
  CA   2   3   4   5   6   7   8  10  11  12  13  14  16  17  18
  --------------------------------------------------------------                
  XX   1   9  15 
 <><><><><><><><><><><><><><><><><><><><><><><><><><><><><><><><><><><>
  CLASS :           23     MULTIPLICITY :   3     N. OF SYMM. OP. :   2
  CA   2   3   4   5   6   7   8   9  11  13  14  15  16  17  18
  --------------------------------------------------------------                
  XX   1  10  12 
 <><><><><><><><><><><><><><><><><><><><><><><><><><><><><><><><><><><>
  CLASS :           24     MULTIPLICITY :   6     N. OF SYMM. OP. :   1
  CA   2   3   4   5   6   7   8   9  12  13  14  15  16  17  18
  --------------------------------------------------------------                
  XX   1  10  11 
 <><><><><><><><><><><><><><><><><><><><><><><><><><><><><><><><><><><>
  CLASS :           25     MULTIPLICITY :   3     N. OF SYMM. OP. :   2
  CA   2   3   4   5   6   7   8   9  11  12  13  15  16  17  18
  --------------------------------------------------------------                
  XX   1  10  14 
 <><><><><><><><><><><><><><><><><><><><><><><><><><><><><><><><><><><>
  CLASS :           26     MULTIPLICITY :   6     N. OF SYMM. OP. :   1
  CA   2   3   4   5   6   7   8   9  11  12  13  14  16  17  18
  --------------------------------------------------------------                
  XX   1  10  15 
 <><><><><><><><><><><><><><><><><><><><><><><><><><><><><><><><><><><>
  CLASS :           27     MULTIPLICITY :   3     N. OF SYMM. OP. :   2
  CA   2   3   4   5   6   7   8   9  11  12  13  14  15  16  17
  --------------------------------------------------------------                
  XX   1  10  18 
 <><><><><><><><><><><><><><><><><><><><><><><><><><><><><><><><><><><>
  CLASS :           28     MULTIPLICITY :   3     N. OF SYMM. OP. :   2
  CA   2   3   4   5   6   7   8   9  10  12  13  15  16  17  18
  --------------------------------------------------------------                
  XX   1  11  14 
 <><><><><><><><><><><><><><><><><><><><><><><><><><><><><><><><><><><>
  CLASS :           29     MULTIPLICITY :   3     N. OF SYMM. OP. :   2
  CA   2   3   4   5   6   7   8   9  10  12  13  14  16  17  18
  --------------------------------------------------------------                
  XX   1  11  15 
 <><><><><><><><><><><><><><><><><><><><><><><><><><><><><><><><><><><>
  CLASS :           30     MULTIPLICITY :   6     N. OF SYMM. OP. :   1
  CA   2   3   4   5   6   7   8   9  10  12  13  14  15  16  17
  --------------------------------------------------------------                
  XX   1  11  18 
 <><><><><><><><><><><><><><><><><><><><><><><><><><><><><><><><><><><>
  CLASS :           31     MULTIPLICITY :   3     N. OF SYMM. OP. :   2
  CA   2   3   4   5   6   7   8   9  10  11  12  13  14  16  17
  --------------------------------------------------------------                
  XX   1  15  18 
 <><><><><><><><><><><><><><><><><><><><><><><><><><><><><><><><><><><>
  CLASS :           32     MULTIPLICITY :   2     N. OF SYMM. OP. :   3
  CA   1   3   4   5   8   9  10  11  12  13  14  15  16  17  18
  --------------------------------------------------------------                
  XX   2   6   7 
 <><><><><><><><><><><><><><><><><><><><><><><><><><><><><><><><><><><>
  CLASS :           33     MULTIPLICITY :   6     N. OF SYMM. OP. :   1
  CA   1   4   5   7   8   9  10  11  12  13  14  15  16  17  18
  --------------------------------------------------------------                
  XX   2   3   6 
 <><><><><><><><><><><><><><><><><><><><><><><><><><><><><><><><><><><>
  CLASS :           34     MULTIPLICITY :   6     N. OF SYMM. OP. :   1
  CA   1   3   5   7   8   9  10  11  12  13  14  15  16  17  18
  --------------------------------------------------------------                
  XX   2   4   6 
 <><><><><><><><><><><><><><><><><><><><><><><><><><><><><><><><><><><>
  CLASS :           35     MULTIPLICITY :   6     N. OF SYMM. OP. :   1
  CA   1   3   4   5   7   9  10  11  12  13  14  15  16  17  18
  --------------------------------------------------------------                
  XX   2   6   8 
 <><><><><><><><><><><><><><><><><><><><><><><><><><><><><><><><><><><>
  CLASS :           36     MULTIPLICITY :   6     N. OF SYMM. OP. :   1
  CA   1   3   4   7   8   9  10  11  12  13  14  15  16  17  18
  --------------------------------------------------------------                
  XX   2   5   6 
 <><><><><><><><><><><><><><><><><><><><><><><><><><><><><><><><><><><>
  CLASS :           37     MULTIPLICITY :   6     N. OF SYMM. OP. :   1
  CA   1   3   4   5   7   8  10  11  12  13  14  15  16  17  18
  --------------------------------------------------------------                
  XX   2   6   9 
 <><><><><><><><><><><><><><><><><><><><><><><><><><><><><><><><><><><>
  CLASS :           38     MULTIPLICITY :   6     N. OF SYMM. OP. :   1
  CA   1   3   4   5   7   8   9  11  12  13  14  15  16  17  18
  --------------------------------------------------------------                
  XX   2   6  10 
 <><><><><><><><><><><><><><><><><><><><><><><><><><><><><><><><><><><>
  CLASS :           39     MULTIPLICITY :   6     N. OF SYMM. OP. :   1
  CA   1   3   4   5   7   8   9  10  11  13  14  15  16  17  18
  --------------------------------------------------------------                
  XX   2   6  12 
 <><><><><><><><><><><><><><><><><><><><><><><><><><><><><><><><><><><>
  CLASS :           40     MULTIPLICITY :   6     N. OF SYMM. OP. :   1
  CA   1   3   4   5   7   8   9  10  11  12  13  14  15  17  18
  --------------------------------------------------------------                
  XX   2   6  16 
 <><><><><><><><><><><><><><><><><><><><><><><><><><><><><><><><><><><>
  CLASS :           41     MULTIPLICITY :   6     N. OF SYMM. OP. :   1
  CA   1   3   4   5   7   8   9  10  12  13  14  15  16  17  18
  --------------------------------------------------------------                
  XX   2   6  11 
 <><><><><><><><><><><><><><><><><><><><><><><><><><><><><><><><><><><>
  CLASS :           42     MULTIPLICITY :   6     N. OF SYMM. OP. :   1
  CA   1   3   4   5   7   8   9  10  11  12  13  15  16  17  18
  --------------------------------------------------------------                
  XX   2   6  14 
 <><><><><><><><><><><><><><><><><><><><><><><><><><><><><><><><><><><>
  CLASS :           43     MULTIPLICITY :   6     N. OF SYMM. OP. :   1
  CA   1   3   4   5   7   8   9  10  11  12  14  15  16  17  18
  --------------------------------------------------------------                
  XX   2   6  13 
 <><><><><><><><><><><><><><><><><><><><><><><><><><><><><><><><><><><>
  CLASS :           44     MULTIPLICITY :   6     N. OF SYMM. OP. :   1
  CA   1   3   4   5   7   8   9  10  11  12  13  14  16  17  18
  --------------------------------------------------------------                
  XX   2   6  15 
 <><><><><><><><><><><><><><><><><><><><><><><><><><><><><><><><><><><>
  CLASS :           45     MULTIPLICITY :   6     N. OF SYMM. OP. :   1
  CA   1   3   4   5   7   8   9  10  11  12  13  14  15  16  17
  --------------------------------------------------------------                
  XX   2   6  18 
 <><><><><><><><><><><><><><><><><><><><><><><><><><><><><><><><><><><>
  CLASS :           46     MULTIPLICITY :   6     N. OF SYMM. OP. :   1
  CA   1   3   4   5   7   8   9  10  11  12  13  14  15  16  18
  --------------------------------------------------------------                
  XX   2   6  17 
 <><><><><><><><><><><><><><><><><><><><><><><><><><><><><><><><><><><>
  CLASS :           47     MULTIPLICITY :   3     N. OF SYMM. OP. :   2
  CA   1   4   6   7   8   9  10  11  12  13  14  15  16  17  18
  --------------------------------------------------------------                
  XX   2   3   5 
 <><><><><><><><><><><><><><><><><><><><><><><><><><><><><><><><><><><>
  CLASS :           48     MULTIPLICITY :   3     N. OF SYMM. OP. :   2
  CA   1   4   5   6   7   8  10  11  12  13  14  15  16  17  18
  --------------------------------------------------------------                
  XX   2   3   9 
 <><><><><><><><><><><><><><><><><><><><><><><><><><><><><><><><><><><>
  CLASS :           49     MULTIPLICITY :   6     N. OF SYMM. OP. :   1
  CA   1   4   5   6   7   8   9  11  12  13  14  15  16  17  18
  --------------------------------------------------------------                
  XX   2   3  10 
 <><><><><><><><><><><><><><><><><><><><><><><><><><><><><><><><><><><>
  CLASS :           50     MULTIPLICITY :   3     N. OF SYMM. OP. :   2
  CA   1   4   5   6   7   8   9  10  11  12  13  14  15  17  18
  --------------------------------------------------------------                
  XX   2   3  16 
 <><><><><><><><><><><><><><><><><><><><><><><><><><><><><><><><><><><>
  CLASS :           51     MULTIPLICITY :   3     N. OF SYMM. OP. :   2
  CA   1   4   5   6   7   8   9  10  12  13  14  15  16  17  18
  --------------------------------------------------------------                
  XX   2   3  11 
 <><><><><><><><><><><><><><><><><><><><><><><><><><><><><><><><><><><>
  CLASS :           52     MULTIPLICITY :   6     N. OF SYMM. OP. :   1
  CA   1   4   5   6   7   8   9  10  11  12  13  15  16  17  18
  --------------------------------------------------------------                
  XX   2   3  14 
 <><><><><><><><><><><><><><><><><><><><><><><><><><><><><><><><><><><>
  CLASS :           53     MULTIPLICITY :   3     N. OF SYMM. OP. :   2
  CA   1   4   5   6   7   8   9  10  11  12  13  14  16  17  18
  --------------------------------------------------------------                
  XX   2   3  15 
 <><><><><><><><><><><><><><><><><><><><><><><><><><><><><><><><><><><>
  CLASS :           54     MULTIPLICITY :   6     N. OF SYMM. OP. :   1
  CA   1   4   5   6   7   8   9  10  11  12  13  14  15  16  17
  --------------------------------------------------------------                
  XX   2   3  18 
 <><><><><><><><><><><><><><><><><><><><><><><><><><><><><><><><><><><>
  CLASS :           55     MULTIPLICITY :   3     N. OF SYMM. OP. :   2
  CA   1   3   6   7   8   9  10  11  12  13  14  15  16  17  18
  --------------------------------------------------------------                
  XX   2   4   5 
 <><><><><><><><><><><><><><><><><><><><><><><><><><><><><><><><><><><>
  CLASS :           56     MULTIPLICITY :   3     N. OF SYMM. OP. :   2
  CA   1   3   5   6   7   8  10  11  12  13  14  15  16  17  18
  --------------------------------------------------------------                
  XX   2   4   9 
 <><><><><><><><><><><><><><><><><><><><><><><><><><><><><><><><><><><>
  CLASS :           57     MULTIPLICITY :   3     N. OF SYMM. OP. :   2
  CA   1   3   5   6   7   8   9  11  12  13  14  15  16  17  18
  --------------------------------------------------------------                
  XX   2   4  10 
 <><><><><><><><><><><><><><><><><><><><><><><><><><><><><><><><><><><>
  CLASS :           58     MULTIPLICITY :   6     N. OF SYMM. OP. :   1
  CA   1   3   5   6   7   8   9  10  11  13  14  15  16  17  18
  --------------------------------------------------------------                
  XX   2   4  12 
 <><><><><><><><><><><><><><><><><><><><><><><><><><><><><><><><><><><>
  CLASS :           59     MULTIPLICITY :   6     N. OF SYMM. OP. :   1
  CA   1   3   5   6   7   8   9  10  12  13  14  15  16  17  18
  --------------------------------------------------------------                
  XX   2   4  11 
 <><><><><><><><><><><><><><><><><><><><><><><><><><><><><><><><><><><>
  CLASS :           60     MULTIPLICITY :   3     N. OF SYMM. OP. :   2
  CA   1   3   5   6   7   8   9  10  11  12  13  15  16  17  18
  --------------------------------------------------------------                
  XX   2   4  14 
 <><><><><><><><><><><><><><><><><><><><><><><><><><><><><><><><><><><>
  CLASS :           61     MULTIPLICITY :   6     N. OF SYMM. OP. :   1
  CA   1   3   5   6   7   8   9  10  11  12  13  14  16  17  18
  --------------------------------------------------------------                
  XX   2   4  15 
 <><><><><><><><><><><><><><><><><><><><><><><><><><><><><><><><><><><>
  CLASS :           62     MULTIPLICITY :   3     N. OF SYMM. OP. :   2
  CA   1   3   5   6   7   8   9  10  11  12  13  14  15  16  17
  --------------------------------------------------------------                
  XX   2   4  18 
 <><><><><><><><><><><><><><><><><><><><><><><><><><><><><><><><><><><>
  CLASS :           63     MULTIPLICITY :   3     N. OF SYMM. OP. :   2
  CA   1   3   4   6   7   9  10  11  12  13  14  15  16  17  18
  --------------------------------------------------------------                
  XX   2   5   8 
 <><><><><><><><><><><><><><><><><><><><><><><><><><><><><><><><><><><>
  CLASS :           64     MULTIPLICITY :   3     N. OF SYMM. OP. :   2
  CA   1   3   4   5   6   7  10  11  12  13  14  15  16  17  18
  --------------------------------------------------------------                
  XX   2   8   9 
 <><><><><><><><><><><><><><><><><><><><><><><><><><><><><><><><><><><>
  CLASS :           65     MULTIPLICITY :   6     N. OF SYMM. OP. :   1
  CA   1   3   4   5   6   7   9  11  12  13  14  15  16  17  18
  --------------------------------------------------------------                
  XX   2   8  10 
 <><><><><><><><><><><><><><><><><><><><><><><><><><><><><><><><><><><>
  CLASS :           66     MULTIPLICITY :   3     N. OF SYMM. OP. :   2
  CA   1   3   4   5   6   7   9  10  11  13  14  15  16  17  18
  --------------------------------------------------------------                
  XX   2   8  12 
 <><><><><><><><><><><><><><><><><><><><><><><><><><><><><><><><><><><>
  CLASS :           67     MULTIPLICITY :   6     N. OF SYMM. OP. :   1
  CA   1   3   4   5   6   7   9  10  12  13  14  15  16  17  18
  --------------------------------------------------------------                
  XX   2   8  11 
 <><><><><><><><><><><><><><><><><><><><><><><><><><><><><><><><><><><>
  CLASS :           68     MULTIPLICITY :   3     N. OF SYMM. OP. :   2
  CA   1   3   4   5   6   7   9  10  11  12  14  15  16  17  18
  --------------------------------------------------------------                
  XX   2   8  13 
 <><><><><><><><><><><><><><><><><><><><><><><><><><><><><><><><><><><>
  CLASS :           69     MULTIPLICITY :   6     N. OF SYMM. OP. :   1
  CA   1   3   4   5   6   7   9  10  11  12  13  14  16  17  18
  --------------------------------------------------------------                
  XX   2   8  15 
 <><><><><><><><><><><><><><><><><><><><><><><><><><><><><><><><><><><>
  CLASS :           70     MULTIPLICITY :   3     N. OF SYMM. OP. :   2
  CA   1   3   4   5   6   7   9  10  11  12  13  14  15  16  18
  --------------------------------------------------------------                
  XX   2   8  17 
 <><><><><><><><><><><><><><><><><><><><><><><><><><><><><><><><><><><>
  CLASS :           71     MULTIPLICITY :   6     N. OF SYMM. OP. :   1
  CA   1   3   4   6   7   8  10  11  12  13  14  15  16  17  18
  --------------------------------------------------------------                
  XX   2   5   9 
 <><><><><><><><><><><><><><><><><><><><><><><><><><><><><><><><><><><>
  CLASS :           72     MULTIPLICITY :   6     N. OF SYMM. OP. :   1
  CA   1   3   4   6   7   8   9  11  12  13  14  15  16  17  18
  --------------------------------------------------------------                
  XX   2   5  10 
 <><><><><><><><><><><><><><><><><><><><><><><><><><><><><><><><><><><>
  CLASS :           73     MULTIPLICITY :   6     N. OF SYMM. OP. :   1
  CA   1   3   4   6   7   8   9  10  11  13  14  15  16  17  18
  --------------------------------------------------------------                
  XX   2   5  12 
 <><><><><><><><><><><><><><><><><><><><><><><><><><><><><><><><><><><>
  CLASS :           74     MULTIPLICITY :   6     N. OF SYMM. OP. :   1
  CA   1   3   4   6   7   8   9  10  11  12  13  14  15  17  18
  --------------------------------------------------------------                
  XX   2   5  16 
 <><><><><><><><><><><><><><><><><><><><><><><><><><><><><><><><><><><>
  CLASS :           75     MULTIPLICITY :   6     N. OF SYMM. OP. :   1
  CA   1   3   4   6   7   8   9  10  12  13  14  15  16  17  18
  --------------------------------------------------------------                
  XX   2   5  11 
 <><><><><><><><><><><><><><><><><><><><><><><><><><><><><><><><><><><>
  CLASS :           76     MULTIPLICITY :   6     N. OF SYMM. OP. :   1
  CA   1   3   4   6   7   8   9  10  11  12  13  15  16  17  18
  --------------------------------------------------------------                
  XX   2   5  14 
 <><><><><><><><><><><><><><><><><><><><><><><><><><><><><><><><><><><>
  CLASS :           77     MULTIPLICITY :   6     N. OF SYMM. OP. :   1
  CA   1   3   4   6   7   8   9  10  11  12  14  15  16  17  18
  --------------------------------------------------------------                
  XX   2   5  13 
 <><><><><><><><><><><><><><><><><><><><><><><><><><><><><><><><><><><>
  CLASS :           78     MULTIPLICITY :   6     N. OF SYMM. OP. :   1
  CA   1   3   4   6   7   8   9  10  11  12  13  14  16  17  18
  --------------------------------------------------------------                
  XX   2   5  15 
 <><><><><><><><><><><><><><><><><><><><><><><><><><><><><><><><><><><>
  CLASS :           79     MULTIPLICITY :   6     N. OF SYMM. OP. :   1
  CA   1   3   4   6   7   8   9  10  11  12  13  14  15  16  17
  --------------------------------------------------------------                
  XX   2   5  18 
 <><><><><><><><><><><><><><><><><><><><><><><><><><><><><><><><><><><>
  CLASS :           80     MULTIPLICITY :   6     N. OF SYMM. OP. :   1
  CA   1   3   4   6   7   8   9  10  11  12  13  14  15  16  18
  --------------------------------------------------------------                
  XX   2   5  17 
 <><><><><><><><><><><><><><><><><><><><><><><><><><><><><><><><><><><>
  CLASS :           81     MULTIPLICITY :   6     N. OF SYMM. OP. :   1
  CA   1   3   4   5   6   7   8  11  12  13  14  15  16  17  18
  --------------------------------------------------------------                
  XX   2   9  10 
 <><><><><><><><><><><><><><><><><><><><><><><><><><><><><><><><><><><>
  CLASS :           82     MULTIPLICITY :   6     N. OF SYMM. OP. :   1
  CA   1   3   4   5   6   7   8  10  11  13  14  15  16  17  18
  --------------------------------------------------------------                
  XX   2   9  12 
 <><><><><><><><><><><><><><><><><><><><><><><><><><><><><><><><><><><>
  CLASS :           83     MULTIPLICITY :   6     N. OF SYMM. OP. :   1
  CA   1   3   4   5   6   7   8  10  11  12  13  14  15  17  18
  --------------------------------------------------------------                
  XX   2   9  16 
 <><><><><><><><><><><><><><><><><><><><><><><><><><><><><><><><><><><>
  CLASS :           84     MULTIPLICITY :   6     N. OF SYMM. OP. :   1
  CA   1   3   4   5   6   7   8  10  12  13  14  15  16  17  18
  --------------------------------------------------------------                
  XX   2   9  11 
 <><><><><><><><><><><><><><><><><><><><><><><><><><><><><><><><><><><>
  CLASS :           85     MULTIPLICITY :   6     N. OF SYMM. OP. :   1
  CA   1   3   4   5   6   7   8  10  11  12  13  15  16  17  18
  --------------------------------------------------------------                
  XX   2   9  14 
 <><><><><><><><><><><><><><><><><><><><><><><><><><><><><><><><><><><>
  CLASS :           86     MULTIPLICITY :   6     N. OF SYMM. OP. :   1
  CA   1   3   4   5   6   7   8  10  11  12  14  15  16  17  18
  --------------------------------------------------------------                
  XX   2   9  13 
 <><><><><><><><><><><><><><><><><><><><><><><><><><><><><><><><><><><>
  CLASS :           87     MULTIPLICITY :   6     N. OF SYMM. OP. :   1
  CA   1   3   4   5   6   7   8  10  11  12  13  14  16  17  18
  --------------------------------------------------------------                
  XX   2   9  15 
 <><><><><><><><><><><><><><><><><><><><><><><><><><><><><><><><><><><>
  CLASS :           88     MULTIPLICITY :   6     N. OF SYMM. OP. :   1
  CA   1   3   4   5   6   7   8  10  11  12  13  14  15  16  17
  --------------------------------------------------------------                
  XX   2   9  18 
 <><><><><><><><><><><><><><><><><><><><><><><><><><><><><><><><><><><>
  CLASS :           89     MULTIPLICITY :   6     N. OF SYMM. OP. :   1
  CA   1   3   4   5   6   7   8  10  11  12  13  14  15  16  18
  --------------------------------------------------------------                
  XX   2   9  17 
 <><><><><><><><><><><><><><><><><><><><><><><><><><><><><><><><><><><>
  CLASS :           90     MULTIPLICITY :   6     N. OF SYMM. OP. :   1
  CA   1   3   4   5   6   7   8   9  11  13  14  15  16  17  18
  --------------------------------------------------------------                
  XX   2  10  12 
 <><><><><><><><><><><><><><><><><><><><><><><><><><><><><><><><><><><>
  CLASS :           91     MULTIPLICITY :   6     N. OF SYMM. OP. :   1
  CA   1   3   4   5   6   7   8   9  11  12  13  14  15  17  18
  --------------------------------------------------------------                
  XX   2  10  16 
 <><><><><><><><><><><><><><><><><><><><><><><><><><><><><><><><><><><>
  CLASS :           92     MULTIPLICITY :   6     N. OF SYMM. OP. :   1
  CA   1   3   4   5   6   7   8   9  12  13  14  15  16  17  18
  --------------------------------------------------------------                
  XX   2  10  11 
 <><><><><><><><><><><><><><><><><><><><><><><><><><><><><><><><><><><>
  CLASS :           93     MULTIPLICITY :   6     N. OF SYMM. OP. :   1
  CA   1   3   4   5   6   7   8   9  11  12  13  15  16  17  18
  --------------------------------------------------------------                
  XX   2  10  14 
 <><><><><><><><><><><><><><><><><><><><><><><><><><><><><><><><><><><>
  CLASS :           94     MULTIPLICITY :   6     N. OF SYMM. OP. :   1
  CA   1   3   4   5   6   7   8   9  11  12  14  15  16  17  18
  --------------------------------------------------------------                
  XX   2  10  13 
 <><><><><><><><><><><><><><><><><><><><><><><><><><><><><><><><><><><>
  CLASS :           95     MULTIPLICITY :   6     N. OF SYMM. OP. :   1
  CA   1   3   4   5   6   7   8   9  11  12  13  14  16  17  18
  --------------------------------------------------------------                
  XX   2  10  15 
 <><><><><><><><><><><><><><><><><><><><><><><><><><><><><><><><><><><>
  CLASS :           96     MULTIPLICITY :   6     N. OF SYMM. OP. :   1
  CA   1   3   4   5   6   7   8   9  11  12  13  14  15  16  17
  --------------------------------------------------------------                
  XX   2  10  18 
 <><><><><><><><><><><><><><><><><><><><><><><><><><><><><><><><><><><>
  CLASS :           97     MULTIPLICITY :   6     N. OF SYMM. OP. :   1
  CA   1   3   4   5   6   7   8   9  11  12  13  14  15  16  18
  --------------------------------------------------------------                
  XX   2  10  17 
 <><><><><><><><><><><><><><><><><><><><><><><><><><><><><><><><><><><>
  CLASS :           98     MULTIPLICITY :   6     N. OF SYMM. OP. :   1
  CA   1   3   4   5   6   7   8   9  10  11  13  14  15  17  18
  --------------------------------------------------------------                
  XX   2  12  16 
 <><><><><><><><><><><><><><><><><><><><><><><><><><><><><><><><><><><>
  CLASS :           99     MULTIPLICITY :   6     N. OF SYMM. OP. :   1
  CA   1   3   4   5   6   7   8   9  10  13  14  15  16  17  18
  --------------------------------------------------------------                
  XX   2  11  12 
 <><><><><><><><><><><><><><><><><><><><><><><><><><><><><><><><><><><>
  CLASS :          100     MULTIPLICITY :   6     N. OF SYMM. OP. :   1
  CA   1   3   4   5   6   7   8   9  10  11  13  15  16  17  18
  --------------------------------------------------------------                
  XX   2  12  14 
 <><><><><><><><><><><><><><><><><><><><><><><><><><><><><><><><><><><>
  CLASS :          101     MULTIPLICITY :   6     N. OF SYMM. OP. :   1
  CA   1   3   4   5   6   7   8   9  10  11  14  15  16  17  18
  --------------------------------------------------------------                
  XX   2  12  13 
 <><><><><><><><><><><><><><><><><><><><><><><><><><><><><><><><><><><>
  CLASS :          102     MULTIPLICITY :   6     N. OF SYMM. OP. :   1
  CA   1   3   4   5   6   7   8   9  10  11  13  14  16  17  18
  --------------------------------------------------------------                
  XX   2  12  15 
 <><><><><><><><><><><><><><><><><><><><><><><><><><><><><><><><><><><>
  CLASS :          103     MULTIPLICITY :   6     N. OF SYMM. OP. :   1
  CA   1   3   4   5   6   7   8   9  10  11  13  14  15  16  17
  --------------------------------------------------------------                
  XX   2  12  18 
 <><><><><><><><><><><><><><><><><><><><><><><><><><><><><><><><><><><>
  CLASS :          104     MULTIPLICITY :   6     N. OF SYMM. OP. :   1
  CA   1   3   4   5   6   7   8   9  10  11  13  14  15  16  18
  --------------------------------------------------------------                
  XX   2  12  17 
 <><><><><><><><><><><><><><><><><><><><><><><><><><><><><><><><><><><>
  CLASS :          105     MULTIPLICITY :   6     N. OF SYMM. OP. :   1
  CA   1   3   4   5   6   7   8   9  10  12  13  14  15  17  18
  --------------------------------------------------------------                
  XX   2  11  16 
 <><><><><><><><><><><><><><><><><><><><><><><><><><><><><><><><><><><>
  CLASS :          106     MULTIPLICITY :   6     N. OF SYMM. OP. :   1
  CA   1   3   4   5   6   7   8   9  10  11  12  13  15  17  18
  --------------------------------------------------------------                
  XX   2  14  16 
 <><><><><><><><><><><><><><><><><><><><><><><><><><><><><><><><><><><>
  CLASS :          107     MULTIPLICITY :   6     N. OF SYMM. OP. :   1
  CA   1   3   4   5   6   7   8   9  10  11  12  14  15  17  18
  --------------------------------------------------------------                
  XX   2  13  16 
 <><><><><><><><><><><><><><><><><><><><><><><><><><><><><><><><><><><>
  CLASS :          108     MULTIPLICITY :   6     N. OF SYMM. OP. :   1
  CA   1   3   4   5   6   7   8   9  10  11  12  13  14  17  18
  --------------------------------------------------------------                
  XX   2  15  16 
 <><><><><><><><><><><><><><><><><><><><><><><><><><><><><><><><><><><>
  CLASS :          109     MULTIPLICITY :   6     N. OF SYMM. OP. :   1
  CA   1   3   4   5   6   7   8   9  10  11  12  13  14  15  17
  --------------------------------------------------------------                
  XX   2  16  18 
 <><><><><><><><><><><><><><><><><><><><><><><><><><><><><><><><><><><>
  CLASS :          110     MULTIPLICITY :   6     N. OF SYMM. OP. :   1
  CA   1   3   4   5   6   7   8   9  10  11  12  13  14  15  18
  --------------------------------------------------------------                
  XX   2  16  17 
 <><><><><><><><><><><><><><><><><><><><><><><><><><><><><><><><><><><>
  CLASS :          111     MULTIPLICITY :   6     N. OF SYMM. OP. :   1
  CA   1   3   4   5   6   7   8   9  10  12  13  15  16  17  18
  --------------------------------------------------------------                
  XX   2  11  14 
 <><><><><><><><><><><><><><><><><><><><><><><><><><><><><><><><><><><>
  CLASS :          112     MULTIPLICITY :   6     N. OF SYMM. OP. :   1
  CA   1   3   4   5   6   7   8   9  10  12  14  15  16  17  18
  --------------------------------------------------------------                
  XX   2  11  13 
 <><><><><><><><><><><><><><><><><><><><><><><><><><><><><><><><><><><>
  CLASS :          113     MULTIPLICITY :   6     N. OF SYMM. OP. :   1
  CA   1   3   4   5   6   7   8   9  10  12  13  14  16  17  18
  --------------------------------------------------------------                
  XX   2  11  15 
 <><><><><><><><><><><><><><><><><><><><><><><><><><><><><><><><><><><>
  CLASS :          114     MULTIPLICITY :   6     N. OF SYMM. OP. :   1
  CA   1   3   4   5   6   7   8   9  10  12  13  14  15  16  17
  --------------------------------------------------------------                
  XX   2  11  18 
 <><><><><><><><><><><><><><><><><><><><><><><><><><><><><><><><><><><>
  CLASS :          115     MULTIPLICITY :   6     N. OF SYMM. OP. :   1
  CA   1   3   4   5   6   7   8   9  10  12  13  14  15  16  18
  --------------------------------------------------------------                
  XX   2  11  17 
 <><><><><><><><><><><><><><><><><><><><><><><><><><><><><><><><><><><>
  CLASS :          116     MULTIPLICITY :   6     N. OF SYMM. OP. :   1
  CA   1   3   4   5   6   7   8   9  10  11  12  15  16  17  18
  --------------------------------------------------------------                
  XX   2  13  14 
 <><><><><><><><><><><><><><><><><><><><><><><><><><><><><><><><><><><>
  CLASS :          117     MULTIPLICITY :   6     N. OF SYMM. OP. :   1
  CA   1   3   4   5   6   7   8   9  10  11  12  13  16  17  18
  --------------------------------------------------------------                
  XX   2  14  15 
 <><><><><><><><><><><><><><><><><><><><><><><><><><><><><><><><><><><>
  CLASS :          118     MULTIPLICITY :   6     N. OF SYMM. OP. :   1
  CA   1   3   4   5   6   7   8   9  10  11  12  13  15  16  17
  --------------------------------------------------------------                
  XX   2  14  18 
 <><><><><><><><><><><><><><><><><><><><><><><><><><><><><><><><><><><>
  CLASS :          119     MULTIPLICITY :   6     N. OF SYMM. OP. :   1
  CA   1   3   4   5   6   7   8   9  10  11  12  13  15  16  18
  --------------------------------------------------------------                
  XX   2  14  17 
 <><><><><><><><><><><><><><><><><><><><><><><><><><><><><><><><><><><>
  CLASS :          120     MULTIPLICITY :   6     N. OF SYMM. OP. :   1
  CA   1   3   4   5   6   7   8   9  10  11  12  14  16  17  18
  --------------------------------------------------------------                
  XX   2  13  15 
 <><><><><><><><><><><><><><><><><><><><><><><><><><><><><><><><><><><>
  CLASS :          121     MULTIPLICITY :   6     N. OF SYMM. OP. :   1
  CA   1   3   4   5   6   7   8   9  10  11  12  14  15  16  17
  --------------------------------------------------------------                
  XX   2  13  18 
 <><><><><><><><><><><><><><><><><><><><><><><><><><><><><><><><><><><>
  CLASS :          122     MULTIPLICITY :   6     N. OF SYMM. OP. :   1
  CA   1   3   4   5   6   7   8   9  10  11  12  14  15  16  18
  --------------------------------------------------------------                
  XX   2  13  17 
 <><><><><><><><><><><><><><><><><><><><><><><><><><><><><><><><><><><>
  CLASS :          123     MULTIPLICITY :   6     N. OF SYMM. OP. :   1
  CA   1   3   4   5   6   7   8   9  10  11  12  13  14  16  17
  --------------------------------------------------------------                
  XX   2  15  18 
 <><><><><><><><><><><><><><><><><><><><><><><><><><><><><><><><><><><>
  CLASS :          124     MULTIPLICITY :   6     N. OF SYMM. OP. :   1
  CA   1   3   4   5   6   7   8   9  10  11  12  13  14  16  18
  --------------------------------------------------------------                
  XX   2  15  17 
 <><><><><><><><><><><><><><><><><><><><><><><><><><><><><><><><><><><>
  CLASS :          125     MULTIPLICITY :   6     N. OF SYMM. OP. :   1
  CA   1   3   4   5   6   7   8   9  10  11  12  13  14  15  16
  --------------------------------------------------------------                
  XX   2  17  18 
 <><><><><><><><><><><><><><><><><><><><><><><><><><><><><><><><><><><>
  CLASS :          126     MULTIPLICITY :   3     N. OF SYMM. OP. :   2
  CA   1   2   3   4   6   7   8  11  12  13  14  15  16  17  18
  --------------------------------------------------------------                
  XX   5   9  10 
 <><><><><><><><><><><><><><><><><><><><><><><><><><><><><><><><><><><>
  CLASS :          127     MULTIPLICITY :   3     N. OF SYMM. OP. :   2
  CA   1   2   3   4   6   7   8  10  12  13  14  15  16  17  18
  --------------------------------------------------------------                
  XX   5   9  11 
 <><><><><><><><><><><><><><><><><><><><><><><><><><><><><><><><><><><>
  CLASS :          128     MULTIPLICITY :   3     N. OF SYMM. OP. :   2
  CA   1   2   3   4   6   7   8  10  11  12  13  14  16  17  18
  --------------------------------------------------------------                
  XX   5   9  15 
 <><><><><><><><><><><><><><><><><><><><><><><><><><><><><><><><><><><>
  CLASS :          129     MULTIPLICITY :   3     N. OF SYMM. OP. :   2
  CA   1   2   3   4   6   7   8   9  11  13  14  15  16  17  18
  --------------------------------------------------------------                
  XX   5  10  12 
 <><><><><><><><><><><><><><><><><><><><><><><><><><><><><><><><><><><>
  CLASS :          130     MULTIPLICITY :   6     N. OF SYMM. OP. :   1
  CA   1   2   3   4   6   7   8   9  12  13  14  15  16  17  18
  --------------------------------------------------------------                
  XX   5  10  11 
 <><><><><><><><><><><><><><><><><><><><><><><><><><><><><><><><><><><>
  CLASS :          131     MULTIPLICITY :   3     N. OF SYMM. OP. :   2
  CA   1   2   3   4   6   7   8   9  11  12  13  15  16  17  18
  --------------------------------------------------------------                
  XX   5  10  14 
 <><><><><><><><><><><><><><><><><><><><><><><><><><><><><><><><><><><>
  CLASS :          132     MULTIPLICITY :   6     N. OF SYMM. OP. :   1
  CA   1   2   3   4   6   7   8   9  11  12  13  14  16  17  18
  --------------------------------------------------------------                
  XX   5  10  15 
 <><><><><><><><><><><><><><><><><><><><><><><><><><><><><><><><><><><>
  CLASS :          133     MULTIPLICITY :   3     N. OF SYMM. OP. :   2
  CA   1   2   3   4   6   7   8   9  11  12  13  14  15  16  17
  --------------------------------------------------------------                
  XX   5  10  18 
 <><><><><><><><><><><><><><><><><><><><><><><><><><><><><><><><><><><>
  CLASS :          134     MULTIPLICITY :   3     N. OF SYMM. OP. :   2
  CA   1   2   3   4   6   7   8   9  10  12  13  15  16  17  18
  --------------------------------------------------------------                
  XX   5  11  14 
 <><><><><><><><><><><><><><><><><><><><><><><><><><><><><><><><><><><>
  CLASS :          135     MULTIPLICITY :   3     N. OF SYMM. OP. :   2
  CA   1   2   3   4   6   7   8   9  10  12  13  14  16  17  18
  --------------------------------------------------------------                
  XX   5  11  15 
 <><><><><><><><><><><><><><><><><><><><><><><><><><><><><><><><><><><>
  CLASS :          136     MULTIPLICITY :   6     N. OF SYMM. OP. :   1
  CA   1   2   3   4   6   7   8   9  10  12  13  14  15  16  17
  --------------------------------------------------------------                
  XX   5  11  18 
 <><><><><><><><><><><><><><><><><><><><><><><><><><><><><><><><><><><>
  CLASS :          137     MULTIPLICITY :   3     N. OF SYMM. OP. :   2
  CA   1   2   3   4   6   7   8   9  10  11  12  13  14  16  17
  --------------------------------------------------------------                
  XX   5  15  18 
 <><><><><><><><><><><><><><><><><><><><><><><><><><><><><><><><><><><>
  CLASS :          138     MULTIPLICITY :   3     N. OF SYMM. OP. :   2
  CA   1   2   3   4   5   6   7   8  11  13  14  15  16  17  18
  --------------------------------------------------------------                
  XX   9  10  12 
 <><><><><><><><><><><><><><><><><><><><><><><><><><><><><><><><><><><>
  CLASS :          139     MULTIPLICITY :   6     N. OF SYMM. OP. :   1
  CA   1   2   3   4   5   6   7   8  12  13  14  15  16  17  18
  --------------------------------------------------------------                
  XX   9  10  11 
 <><><><><><><><><><><><><><><><><><><><><><><><><><><><><><><><><><><>
  CLASS :          140     MULTIPLICITY :   3     N. OF SYMM. OP. :   2
  CA   1   2   3   4   5   6   7   8  11  12  13  15  16  17  18
  --------------------------------------------------------------                
  XX   9  10  14 
 <><><><><><><><><><><><><><><><><><><><><><><><><><><><><><><><><><><>
  CLASS :          141     MULTIPLICITY :   6     N. OF SYMM. OP. :   1
  CA   1   2   3   4   5   6   7   8  11  12  13  14  16  17  18
  --------------------------------------------------------------                
  XX   9  10  15 
 <><><><><><><><><><><><><><><><><><><><><><><><><><><><><><><><><><><>
  CLASS :          142     MULTIPLICITY :   3     N. OF SYMM. OP. :   2
  CA   1   2   3   4   5   6   7   8  11  12  13  14  15  16  17
  --------------------------------------------------------------                
  XX   9  10  18 
 <><><><><><><><><><><><><><><><><><><><><><><><><><><><><><><><><><><>
  CLASS :          143     MULTIPLICITY :   3     N. OF SYMM. OP. :   2
  CA   1   2   3   4   5   6   7   8  10  12  13  15  16  17  18
  --------------------------------------------------------------                
  XX   9  11  14 
 <><><><><><><><><><><><><><><><><><><><><><><><><><><><><><><><><><><>
  CLASS :          144     MULTIPLICITY :   3     N. OF SYMM. OP. :   2
  CA   1   2   3   4   5   6   7   8  10  12  13  14  16  17  18
  --------------------------------------------------------------                
  XX   9  11  15 
 <><><><><><><><><><><><><><><><><><><><><><><><><><><><><><><><><><><>
  CLASS :          145     MULTIPLICITY :   6     N. OF SYMM. OP. :   1
  CA   1   2   3   4   5   6   7   8  10  12  13  14  15  16  17
  --------------------------------------------------------------                
  XX   9  11  18 
 <><><><><><><><><><><><><><><><><><><><><><><><><><><><><><><><><><><>
  CLASS :          146     MULTIPLICITY :   3     N. OF SYMM. OP. :   2
  CA   1   2   3   4   5   6   7   8  10  11  12  13  14  16  17
  --------------------------------------------------------------                
  XX   9  15  18 
 <><><><><><><><><><><><><><><><><><><><><><><><><><><><><><><><><><><>
  CLASS :          147     MULTIPLICITY :   1     N. OF SYMM. OP. :   6
  CA   1   2   3   4   5   6   7   8   9  11  13  14  15  17  18
  --------------------------------------------------------------                
  XX  10  12  16 
 <><><><><><><><><><><><><><><><><><><><><><><><><><><><><><><><><><><>
  CLASS :          148     MULTIPLICITY :   3     N. OF SYMM. OP. :   2
  CA   1   2   3   4   5   6   7   8   9  13  14  15  16  17  18
  --------------------------------------------------------------                
  XX  10  11  12 
 <><><><><><><><><><><><><><><><><><><><><><><><><><><><><><><><><><><>
  CLASS :          149     MULTIPLICITY :   6     N. OF SYMM. OP. :   1
  CA   1   2   3   4   5   6   7   8   9  11  13  15  16  17  18
  --------------------------------------------------------------                
  XX  10  12  14 
 <><><><><><><><><><><><><><><><><><><><><><><><><><><><><><><><><><><>
  CLASS :          150     MULTIPLICITY :   3     N. OF SYMM. OP. :   2
  CA   1   2   3   4   5   6   7   8   9  11  13  14  16  17  18
  --------------------------------------------------------------                
  XX  10  12  15 
 <><><><><><><><><><><><><><><><><><><><><><><><><><><><><><><><><><><>
  CLASS :          151     MULTIPLICITY :   6     N. OF SYMM. OP. :   1
  CA   1   2   3   4   5   6   7   8   9  11  13  14  15  16  17
  --------------------------------------------------------------                
  XX  10  12  18 
 <><><><><><><><><><><><><><><><><><><><><><><><><><><><><><><><><><><>
  CLASS :          152     MULTIPLICITY :   6     N. OF SYMM. OP. :   1
  CA   1   2   3   4   5   6   7   8   9  12  13  15  16  17  18
  --------------------------------------------------------------                
  XX  10  11  14 
 <><><><><><><><><><><><><><><><><><><><><><><><><><><><><><><><><><><>
  CLASS :          153     MULTIPLICITY :   3     N. OF SYMM. OP. :   2
  CA   1   2   3   4   5   6   7   8   9  12  14  15  16  17  18
  --------------------------------------------------------------                
  XX  10  11  13 
 <><><><><><><><><><><><><><><><><><><><><><><><><><><><><><><><><><><>
  CLASS :          154     MULTIPLICITY :   6     N. OF SYMM. OP. :   1
  CA   1   2   3   4   5   6   7   8   9  12  13  14  16  17  18
  --------------------------------------------------------------                
  XX  10  11  15 
 <><><><><><><><><><><><><><><><><><><><><><><><><><><><><><><><><><><>
  CLASS :          155     MULTIPLICITY :   6     N. OF SYMM. OP. :   1
  CA   1   2   3   4   5   6   7   8   9  12  13  14  15  16  17
  --------------------------------------------------------------                
  XX  10  11  18 
 <><><><><><><><><><><><><><><><><><><><><><><><><><><><><><><><><><><>
  CLASS :          156     MULTIPLICITY :   6     N. OF SYMM. OP. :   1
  CA   1   2   3   4   5   6   7   8   9  12  13  14  15  16  18
  --------------------------------------------------------------                
  XX  10  11  17 
 <><><><><><><><><><><><><><><><><><><><><><><><><><><><><><><><><><><>
  CLASS :          157     MULTIPLICITY :   6     N. OF SYMM. OP. :   1
  CA   1   2   3   4   5   6   7   8   9  11  12  13  16  17  18
  --------------------------------------------------------------                
  XX  10  14  15 
 <><><><><><><><><><><><><><><><><><><><><><><><><><><><><><><><><><><>
  CLASS :          158     MULTIPLICITY :   3     N. OF SYMM. OP. :   2
  CA   1   2   3   4   5   6   7   8   9  11  12  13  15  16  17
  --------------------------------------------------------------                
  XX  10  14  18 
 <><><><><><><><><><><><><><><><><><><><><><><><><><><><><><><><><><><>
  CLASS :          159     MULTIPLICITY :   6     N. OF SYMM. OP. :   1
  CA   1   2   3   4   5   6   7   8   9  11  12  13  14  16  17
  --------------------------------------------------------------                
  XX  10  15  18 
 <><><><><><><><><><><><><><><><><><><><><><><><><><><><><><><><><><><>
  CLASS :          160     MULTIPLICITY :   3     N. OF SYMM. OP. :   2
  CA   1   2   3   4   5   6   7   8   9  11  12  13  14  16  18
  --------------------------------------------------------------                
  XX  10  15  17 
 <><><><><><><><><><><><><><><><><><><><><><><><><><><><><><><><><><><>
  CLASS :          161     MULTIPLICITY :   1     N. OF SYMM. OP. :   6
  CA   1   2   3   4   5   6   7   8   9  10  12  15  16  17  18
  --------------------------------------------------------------                
  XX  11  13  14 
 <><><><><><><><><><><><><><><><><><><><><><><><><><><><><><><><><><><>
  CLASS :          162     MULTIPLICITY :   6     N. OF SYMM. OP. :   1
  CA   1   2   3   4   5   6   7   8   9  10  12  13  16  17  18
  --------------------------------------------------------------                
  XX  11  14  15 
 <><><><><><><><><><><><><><><><><><><><><><><><><><><><><><><><><><><>
  CLASS :          163     MULTIPLICITY :   3     N. OF SYMM. OP. :   2
  CA   1   2   3   4   5   6   7   8   9  10  12  13  15  16  18
  --------------------------------------------------------------                
  XX  11  14  17 
 <><><><><><><><><><><><><><><><><><><><><><><><><><><><><><><><><><><>
  CLASS :          164     MULTIPLICITY :   6     N. OF SYMM. OP. :   1
  CA   1   2   3   4   5   6   7   8   9  10  12  13  14  16  17
  --------------------------------------------------------------                
  XX  11  15  18 
 <><><><><><><><><><><><><><><><><><><><><><><><><><><><><><><><><><><>
  CLASS :          165     MULTIPLICITY :   3     N. OF SYMM. OP. :   2
  CA   1   2   3   4   5   6   7   8   9  10  12  13  14  15  16
  --------------------------------------------------------------                
  XX  11  17  18 
 <><><><><><><><><><><><><><><><><><><><><><><><><><><><><><><><><><><>
  CLASS :          166     MULTIPLICITY :   1     N. OF SYMM. OP. :   6
  CA   1   2   3   4   5   6   7   8   9  10  11  12  13  14  16
  --------------------------------------------------------------                
  XX  15  17  18 
 ===============================================================================
 INFORMATION **** CONFCOUNT **** CALCULATION COMPLETE
 TTTTTTTTTTTTTTTTTTTTTTTTTTTTTT END         TELAPSE        0.04 TCPU        0.03
 EEEEEEEEEE TERMINATION  DATE 20 02 2023 TIME 15:08:01.0
Mon 20 Feb 2023 15:08:01 GMT
Contents of temporary directory:
total 16
-rw-r--r--  1 brunocamino  admin  5247 20 Feb 15:08 fort.34
SCF abnormal end - no wf written in fort.9
geometry input file fort.34 saved as /Users/brunocamino/Desktop/Imperial/cmsg_icl/solid-solutions/data/crystal/lts/CaMgO_cell_0.gui
temporary directory /Users/brunocamino/crystal/tmp removed
