date Mon 20 Feb 2023 14:58:09 GMT
hostname MacBook-Pro-8.local
system Darwin MacBook-Pro-8.local 21.6.0 Darwin Kernel Version 21.6.0: Mon Aug 22 20:20:05 PDT 2022; root:xnu-8020.140.49~2/RELEASE_ARM64_T8101 arm64
user brunocamino
output data in /Users/brunocamino/Desktop/Imperial/cmsg_icl/solid-solutions/data/crystal/lts/CaMgO_cell_1.out
crystal executable in /Users/brunocamino/crystal
input data in /Users/brunocamino/Desktop/Imperial/cmsg_icl/solid-solutions/data/crystal/lts/CaMgO_cell_1.d12
temporary directory /Users/brunocamino/crystal/tmp
external geometry input from /Users/brunocamino/Desktop/Imperial/cmsg_icl/solid-solutions/data/crystal/lts/CaMgO_cell_1.gui
external geometry input saved in /Users/brunocamino/Desktop/Imperial/cmsg_icl/solid-solutions/data/crystal/lts/CaMgO_cell_1_inp.gui
Prova LTS cubico
EXTERNAL
SCELCONF
1 0 0
0 1 0
0 0 1
EXTPRT
CONFCOUNT
1
16
ONLYCOMP
1
16 
END

         
 *******************************************************************************
 *                                                                             *
 *                               CRYSTAL17                                     *
 *                      public : 1.0.1 - Feb 1st, 2017                         *
 *                       HTTP://WWW.CRYSTAL.UNITO.IT                           *
 *                                                                             *
 *                              MAIN AUTHORS                                   *
 *                                                                             *
 *  R. DOVESI(1,11), V.R. SAUNDERS(2), C. ROETTI(1,11), R. ORLANDO(1,11),      *
 *  C.M. ZICOVICH-WILSON(1,3), F. PASCALE(4), B. CIVALLERI(1,11),              *
 *  K. DOLL(5), N.M. HARRISON(2,6), I.J. BUSH(7), Ph. D'ARCO(8),               *
 *  M. LLUNELL(9), M. CAUSA'(10), Y. NOEL(8), L. MASCHIO(1,11), A. ERBA(1,11)  *
 *  M. RE'RAT(14), S. CASASSA(1,11)                                            *
 *                                                                             *
 *        CONTRIBUTIONS TO THE CODE HAVE ALSO BEEN GIVEN BY                    *
 *                                                                             *
 *  M. FERRABONE(1,11), M. DE LA PIERRE(1,11), M. FERRERO(1,11),               *
 *  J. BAIMA(1,11), E. ALBANESE(1,11), M.F. PEINTINGER(12), R. BAST(13),       *
 *  B. KIRTMAN(15), V. LACIVITA(1,11), R. DEMICHELIS(1,16)                     *
 *  G. BRANDEBURG(17), S. SALUSTRO(1,11), G. SANSONE(1,11)                     *
 *  M.T. RUGGIERO(18)                                                          *
 *                                                                             *
 * (1) THEORETICAL CHEMISTRY GROUP - UNIVERSITA' DI TORINO - TORINO (ITALY)    *

 * (2) COMPUTATIONAL SCIENCE & ENGINEERING DEPARTMENT - STFC DARESBURY (UK)    *
 * (3) UNIVERSIDAD AUTONOMA DEL ESTADO DE MORELOS - CUERNAVACA (MEXICO)        *
 * (4) UNIVERSITE' DE LORRAINE - NANCY (FRANCE)                                *
 * (5) UNIVERSITAET STUTTGART- STUTTGART (GERMANY)                             *
 * (6) IMPERIAL COLLEGE - LONDON (UK)                                          *
 * (7) OXFORD E-RESEARCH CENTRE - OXFORD (UK)                                  *
 * (8) UPMC - SORBONNE UNIVERSITES - PARIS (FRANCE)                            *
 * (9) UNIVERSIDAD DE BARCELONA - BARCELONA (SPAIN)                            *
 *(10) UNIVERSITA' DI NAPOLI "FEDERICO II" - NAPOLI (ITALY)                    *
 *(11) NIS - NANOSTRUCTURED INTERFACES AND SURFACES - TORINO (ITALY)           *
 *(12) MPI FUER CHEMISCHE ENERGIEKONVERSION - MUELHEIM AN DER RUHR (GERMANY)   *
 *(13) UNIVERSITY OF TROMSO - TROMSO (NORWAY)                                  *
 *(14) UNIVERSITE' DE PAU ET DES PAYS DE L'ADOUR - PAU (FRANCE)                *
 *(15) UNIVERSITY OF CALIFORNIA SANTA BARBARA - SANTA BARBARA (USA)            *
 *(16) CURTIN UNIVERSITY - PERTH (AUSTRALIA)                                   *
 *(17) UNIVERSITY COLLEGE LONDON - LONDON (UK)                                 *
 *(18) CAMBRIDGE UNIVERSITY - CAMBRIDGE (UK)                                   *
 *                                                                             *
 *******************************************************************************
 EEEEEEEEEE STARTING  DATE 20 02 2023 TIME 14:58:09.2
 Prova LTS cubico                                                                

 GEOMETRY INPUT FROM EXTERNAL FILE (FORTRAN UNIT 34)
 3D - CRYSTAL 

 *******************************************************************************
 LATTICE PARAMETERS  (ANGSTROMS AND DEGREES) - PRIMITIVE CELL
       A          B          C        ALPHA      BETA     GAMMA        VOLUME
    9.93478    9.94966    9.94966    59.99954  59.94998  59.94998    694.911408
 INFORMATION **** CHKGRP **** SPGR WITH NO INVERSION

 NUMBER OF IRREDUCIBLE ATOMS IN THE CELL:   36

 CARTESIAN COORDINATES (ANGSTROM) - IRREDUCIBLE ATOMS AND SYMMETRY RELATED

 AT.IRR.  AT  AT.N.          X                   Y                   Z
     1     1    20    0.000000000000E+00  0.000000000000E+00  0.000000000000E+00
     2     2    20    2.345169563716E+00  2.345144536480E+00  3.885801000000E-06
     3     3    20   -2.345169563716E+00 -2.345144536480E+00 -3.885801000000E-06
     2     4    20    2.345169563716E+00  3.885801000000E-06  2.345144536480E+00
     5     5    20    4.690339127433E+00  2.345148422281E+00  2.345148422281E+00
     6     6    20    0.000000000000E+00 -2.345140650679E+00  2.345140650679E+00
     3     7    20   -2.345169563716E+00 -3.885801000000E-06 -2.345144536480E+00
     6     8    20    0.000000000000E+00  2.345140650679E+00 -2.345140650679E+00
     9     9    20   -4.690339127433E+00 -2.345148422281E+00 -2.345148422281E+00
    10    10    20    3.549592480000E-03  2.341649135926E+00  2.341649135926E+00
    11    11    20    2.348719156197E+00  4.686793672406E+00  2.341653021727E+00
    12    12    20   -2.341619971236E+00 -3.495400555000E-03  2.341645250125E+00
    11    13    20    2.348719156197E+00  2.341653021727E+00  4.686793672406E+00
    14    14    20    4.693888719913E+00  4.686797558207E+00  4.686797558207E+00
    15    15    20    3.549592480000E-03 -3.491514753000E-03  4.686789786605E+00
    12    16    20   -2.341619971236E+00  2.341645250125E+00 -3.495400555000E-03
    15    17    20    3.549592480000E-03  4.686789786605E+00 -3.491514753000E-03
    18    18    12   -4.686789534952E+00 -3.499286356000E-03 -3.499286356000E-03
    19    19    20   -3.549592480000E-03 -2.341649135926E+00 -2.341649135926E+00
    20    20    12    2.341619971236E+00  3.495400555000E-03 -2.341645250125E+00
    21    21    12   -2.348719156197E+00 -4.686793672406E+00 -2.341653021727E+00
    20    22    12    2.341619971236E+00 -2.341645250125E+00  3.495400555000E-03
    23    23    12    4.686789534952E+00  3.499286356000E-03  3.499286356000E-03
    24    24    12   -3.549592480000E-03 -4.686789786605E+00  3.491514753000E-03
    21    25    12   -2.348719156197E+00 -2.341653021727E+00 -4.686793672406E+00
    24    26    12   -3.549592480000E-03  3.491514753000E-03 -4.686789786605E+00
    27    27    12   -4.693888719913E+00 -4.686797558207E+00 -4.686797558207E+00
    28    28     8   -1.774796240000E-03  1.745757377000E-03 -2.343394893303E+00
    29    29     8    2.343394767476E+00  2.346890293857E+00 -2.343391007502E+00
    30    30     8   -2.346944359957E+00 -2.343398779104E+00 -2.343398779104E+00
    31    31     8    2.343394767476E+00  1.749643178000E-03  1.749643178000E-03
    32    32     8    4.688564331193E+00  2.346894179658E+00  1.753528979000E-03
    28    33     8   -1.774796240000E-03 -2.343394893303E+00  1.745757377000E-03
    32    34     8    4.688564331193E+00  1.753528979000E-03  2.346894179658E+00
    35    35     8   -7.037283487390E+00 -4.688547201384E+00 -4.688547201384E+00
    29    36     8    2.343394767476E+00 -2.343391007502E+00  2.346890293857E+00
    37    37     8    1.774796240000E-03  2.343394893303E+00 -1.745757377000E-03
    38    38     8    2.346944359956E+00  4.688539429782E+00 -1.741871576000E-03
    39    39     8   -2.343394767476E+00 -1.749643178000E-03 -1.749643178000E-03
    40    40     8    2.346944359957E+00  2.343398779104E+00  2.343398779104E+00
    41    41     8    4.692113923673E+00  4.688543315584E+00  2.343402664905E+00
    37    42     8    1.774796240000E-03 -1.745757377000E-03  2.343394893303E+00
    41    43     8    4.692113923673E+00  2.343402664905E+00  4.688543315584E+00
    44    44     8    7.037283487390E+00  4.688547201386E+00  4.688547201386E+00
    38    45     8    2.346944359956E+00 -1.741871576000E-03  4.688539429782E+00
    46    46     8   -5.324388720000E-03 -2.339903378550E+00 -4.685044029229E+00
    47    47     8    2.339845174995E+00  5.241157929000E-03 -4.685040143429E+00
    48    48     8   -2.350493952437E+00 -4.685047915030E+00 -4.685047915030E+00
    49    49     8    2.350493952437E+00  4.685047915031E+00  4.685047915031E+00
    50    50     8    4.685014738712E+00  5.245043731000E-03 -2.339895606949E+00
    46    51     8   -5.324388720000E-03 -4.685044029229E+00 -2.339903378550E+00
    50    52     8    4.685014738712E+00 -2.339895606949E+00  5.245043731000E-03
    53    53     8    7.030184302429E+00  5.248929532000E-03  5.248929532000E-03
    47    54     8    2.350493952437E+00  2.339907264351E+00  7.030188565709E+00

 SYMMETRY CHANGED DURING OLD RUN :  INFORMATION ON SPACE GROUP LOST 
 NUMBER OF SYMMETRY OPERATORS         :    2
 *******************************************************************************
 LATTICE PARAMETERS (ANGSTROMS AND DEGREES) - BOHR = 0.5291772083 ANGSTROM
 PRIMITIVE CELL - CENTRING CODE 1/0 VOLUME=   694.911408 - DENSITY  3.267 g/cm^3
         A              B              C           ALPHA      BETA       GAMMA 
     9.93478161     9.94965872     9.94965872    59.999537  59.949984  59.949984
 *******************************************************************************
 ATOMS IN THE ASYMMETRIC UNIT   36 - ATOMS IN THE UNIT CELL:   54
     ATOM                 X/A                 Y/B                 Z/C    
 *******************************************************************************
      1 T  20 CA    0.000000000000E+00  0.000000000000E+00  0.000000000000E+00
      2 T  20 CA    4.562504472738E-14 -4.928494280236E-14  3.333333333333E-01
      3 T  20 CA   -4.562504472738E-14  4.928494280236E-14 -3.333333333333E-01
      4 F  20 CA    4.563016631209E-14  3.333333333333E-01 -4.929390229336E-14
      5 T  20 CA    2.003952559448E-14  3.333333333333E-01  3.333333333333E-01
      6 T  20 CA    0.000000000000E+00  3.333333333333E-01 -3.333333333333E-01
      7 F  20 CA   -4.563016631209E-14 -3.333333333333E-01  4.929390229336E-14
      8 F  20 CA    0.000000000000E+00 -3.333333333333E-01  3.333333333333E-01
      9 T  20 CA   -2.003952559448E-14 -3.333333333333E-01 -3.333333333333E-01
     10 T  20 CA    3.333333333333E-01 -3.314015728506E-14 -3.314015728506E-14
     11 T  20 CA    3.333333333332E-01 -1.129651927556E-14  3.333333333333E-01
     12 T  20 CA    3.333333333332E-01  8.726352973554E-14 -3.333333333334E-01
     13 F  20 CA    3.333333333332E-01  3.333333333333E-01 -1.126876369995E-14
     14 T  20 CA    3.333333333333E-01  3.333333333333E-01  3.333333333333E-01
     15 T  20 CA    3.333333333333E-01  3.333333333333E-01 -3.333333333334E-01
     16 F  20 CA    3.333333333332E-01 -3.333333333334E-01  8.725436822718E-14
     17 F  20 CA    3.333333333333E-01 -3.333333333334E-01  3.333333333333E-01
     18 T  12 MG    3.333333333330E-01 -3.333333333333E-01 -3.333333333333E-01
     19 T  20 CA   -3.333333333333E-01  3.314015728506E-14  3.314015728506E-14
     20 T  12 MG   -3.333333333332E-01 -8.726352973554E-14  3.333333333334E-01
     21 T  12 MG   -3.333333333332E-01  1.129651927556E-14 -3.333333333333E-01
     22 F  12 MG   -3.333333333332E-01  3.333333333334E-01 -8.725436822718E-14
     23 T  12 MG   -3.333333333330E-01  3.333333333333E-01  3.333333333333E-01
     24 T  12 MG   -3.333333333333E-01  3.333333333334E-01 -3.333333333333E-01
     25 F  12 MG   -3.333333333332E-01 -3.333333333333E-01  1.126876369995E-14
     26 F  12 MG   -3.333333333333E-01 -3.333333333333E-01  3.333333333334E-01
     27 T  12 MG   -3.333333333333E-01 -3.333333333333E-01 -3.333333333333E-01
     28 T   8 O    -1.666666666666E-01 -1.666666666667E-01  1.666666666668E-01
     29 T   8 O    -1.666666666666E-01 -1.666666666668E-01 -5.000000000000E-01
     30 T   8 O    -1.666666666667E-01 -1.666666666667E-01 -1.666666666667E-01
     31 T   8 O    -1.666666666665E-01  1.666666666666E-01  1.666666666666E-01
     32 T   8 O    -1.666666666665E-01  1.666666666667E-01  5.000000000000E-01
     33 F   8 O    -1.666666666666E-01  1.666666666668E-01 -1.666666666667E-01
     34 F   8 O    -1.666666666665E-01  5.000000000000E-01  1.666666666667E-01
     35 T   8 O    -1.666666666666E-01 -5.000000000000E-01 -5.000000000000E-01
     36 F   8 O    -1.666666666666E-01 -5.000000000000E-01 -1.666666666668E-01
     37 T   8 O     1.666666666666E-01 -1.666666666668E-01  1.666666666667E-01
     38 T   8 O     1.666666666666E-01 -1.666666666667E-01  4.999999999999E-01
     39 T   8 O     1.666666666665E-01 -1.666666666666E-01 -1.666666666666E-01
     40 T   8 O     1.666666666667E-01  1.666666666667E-01  1.666666666667E-01
     41 T   8 O     1.666666666667E-01  1.666666666666E-01  5.000000000000E-01
     42 F   8 O     1.666666666666E-01  1.666666666667E-01 -1.666666666668E-01
     43 F   8 O     1.666666666667E-01  5.000000000000E-01  1.666666666666E-01
     44 T   8 O     1.666666666668E-01  5.000000000000E-01  5.000000000000E-01
     45 F   8 O     1.666666666666E-01  4.999999999999E-01 -1.666666666667E-01
     46 T   8 O    -5.000000000000E-01 -1.666666666666E-01  1.666666666667E-01
     47 T   8 O     5.000000000000E-01 -1.666666666667E-01  4.999999999999E-01
     48 T   8 O    -5.000000000000E-01 -1.666666666666E-01 -1.666666666666E-01
     49 T   8 O    -4.999999999999E-01  1.666666666666E-01  1.666666666666E-01
     50 T   8 O    -5.000000000000E-01  1.666666666665E-01 -5.000000000000E-01
     51 F   8 O    -5.000000000000E-01  1.666666666667E-01 -1.666666666666E-01
     52 F   8 O    -5.000000000000E-01 -5.000000000000E-01  1.666666666665E-01
     53 T   8 O    -4.999999999999E-01  5.000000000000E-01  5.000000000000E-01
     54 F   8 O     5.000000000000E-01  5.000000000000E-01 -1.666666666667E-01

 T = ATOM BELONGING TO THE ASYMMETRIC UNIT
 *******************************************************************************
 * GEOMETRY EDITING - INPUT COORDINATES ARE GIVEN IN ANGSTROM         
 *******************************************************************************

 GEOMETRY NOW FULLY CONSISTENT WITH THE GROUP

 GCALCO - MAX INDICES DIRECT LATTICE VECTOR    14    14    14
 NO.OF VECTORS CREATED 6999 STARS 1817 RMAX   105.27502 BOHR

 *******************************************************************************
 * SUPERCELL OPTION
 *******************************************************************************


        EXPANSION MATRIX OF PRIMITIVE CELL
 E1     1.000     0.000     0.000
 E2     0.000     1.000     0.000
 E3     0.000     0.000     1.000

 NUMBER OF ATOMS PER SUPERCELL    54

        DIRECT LATTICE VECTORS COMPONENTS (ANGSTROM)
 B1     0.011     7.025     7.025
 B2     7.036     0.000     7.035
 B3     7.036     7.035     0.000

 LATTICE PARAMETERS  (ANGSTROM AND DEGREES)
       A          B          C         ALPHA     BETA     GAMMA        VOLUME
    9.93478    9.94966    9.94966    59.99954  59.94998  59.94998    694.911408


 **** ATOMS BELONGING TO THE SUPERCELL
 LABEL AT.NO.      COORDINATES (ANGSTROM AND FRACTIONAL)
     1    20     0.0000     0.0000     0.0000     0.0000     0.0000     0.0000
     2    20     2.3452     2.3451     0.0000     0.0000    -0.0000     0.3333
     3    20    -2.3452    -2.3451    -0.0000    -0.0000     0.0000    -0.3333
     4    20     2.3452     0.0000     2.3451     0.0000     0.3333    -0.0000
     5    20     4.6903     2.3451     2.3451     0.0000     0.3333     0.3333
     6    20     0.0000    -2.3451     2.3451     0.0000     0.3333    -0.3333
     7    20    -2.3452    -0.0000    -2.3451    -0.0000    -0.3333     0.0000
     8    20     0.0000     2.3451    -2.3451     0.0000    -0.3333     0.3333
     9    20    -4.6903    -2.3451    -2.3451    -0.0000    -0.3333    -0.3333
    10    20     0.0035     2.3416     2.3416     0.3333    -0.0000    -0.0000
    11    20     2.3487     4.6868     2.3417     0.3333    -0.0000     0.3333
    12    20    -2.3416    -0.0035     2.3416     0.3333     0.0000    -0.3333
    13    20     2.3487     2.3417     4.6868     0.3333     0.3333    -0.0000
    14    20     4.6939     4.6868     4.6868     0.3333     0.3333     0.3333
    15    20     0.0035    -0.0035     4.6868     0.3333     0.3333    -0.3333
    16    20    -2.3416     2.3416    -0.0035     0.3333    -0.3333     0.0000
    17    20     0.0035     4.6868    -0.0035     0.3333    -0.3333     0.3333
    18    12    -4.6868    -0.0035    -0.0035     0.3333    -0.3333    -0.3333
    19    20    -0.0035    -2.3416    -2.3416    -0.3333     0.0000     0.0000
    20    12     2.3416     0.0035    -2.3416    -0.3333    -0.0000     0.3333
    21    12    -2.3487    -4.6868    -2.3417    -0.3333     0.0000    -0.3333
    22    12     2.3416    -2.3416     0.0035    -0.3333     0.3333    -0.0000
    23    12     4.6868     0.0035     0.0035    -0.3333     0.3333     0.3333
    24    12    -0.0035    -4.6868     0.0035    -0.3333     0.3333    -0.3333
    25    12    -2.3487    -2.3417    -4.6868    -0.3333    -0.3333     0.0000
    26    12    -0.0035     0.0035    -4.6868    -0.3333    -0.3333     0.3333
    27    12    -4.6939    -4.6868    -4.6868    -0.3333    -0.3333    -0.3333
    28     8    -0.0018     0.0017    -2.3434    -0.1667    -0.1667     0.1667
    29     8     2.3434     2.3469    -2.3434    -0.1667    -0.1667     0.5000
    30     8    -2.3469    -2.3434    -2.3434    -0.1667    -0.1667    -0.1667
    31     8     2.3434     0.0017     0.0017    -0.1667     0.1667     0.1667
    32     8    -2.3469    -4.6885     0.0017    -0.1667     0.1667    -0.5000
    33     8    -0.0018    -2.3434     0.0017    -0.1667     0.1667    -0.1667
    34     8     4.6886     0.0018     2.3469    -0.1667     0.5000     0.1667
    35     8    -7.0373    -4.6885    -4.6885    -0.1667    -0.5000    -0.5000
    36     8     2.3434    -2.3434     2.3469    -0.1667     0.5000    -0.1667
    37     8     0.0018     2.3434    -0.0017     0.1667    -0.1667     0.1667
    38     8     2.3469     4.6885    -0.0017     0.1667    -0.1667     0.5000
    39     8    -2.3434    -0.0017    -0.0017     0.1667    -0.1667    -0.1667
    40     8     2.3469     2.3434     2.3434     0.1667     0.1667     0.1667
    41     8     4.6921     4.6885     2.3434     0.1667     0.1667     0.5000
    42     8     0.0018    -0.0017     2.3434     0.1667     0.1667    -0.1667
    43     8     4.6921     2.3434     4.6885     0.1667     0.5000     0.1667
    44     8     7.0373     4.6885     4.6885     0.1667     0.5000     0.5000
    45     8     2.3469    -0.0017     4.6885     0.1667     0.5000    -0.1667
    46     8     0.0053     4.6850     2.3399     0.5000    -0.1667     0.1667
    47     8     2.3398     0.0052    -4.6850    -0.5000    -0.1667     0.5000
    48     8    -2.3505    -4.6850    -4.6850    -0.5000    -0.1667    -0.1667
    49     8     2.3398    -2.3399    -2.3399    -0.5000     0.1667     0.1667
    50     8     4.6850     0.0052    -2.3399    -0.5000     0.1667     0.5000
    51     8     0.0053     2.3399     4.6850     0.5000     0.1667    -0.1667
    52     8     4.6850    -2.3399     0.0052    -0.5000     0.5000     0.1667
    53     8     7.0302     0.0052     0.0052    -0.5000     0.5000     0.5000
    54     8     2.3505     2.3399     7.0302     0.5000     0.5000    -0.1667

 **************************** SUPERCELL GENERATED ****************************

 CONSTRUCTION OF SUPERCELL PRODUCT GROUP


     SUPERCELL MATRIX

  1.00000 0.00000 0.00000
  0.00000 1.00000 0.00000
  0.00000 0.00000 1.00000


     INVERSE SUPERCELL MATRIX

  1.00000 0.00000 0.00000
  0.00000 1.00000 0.00000
  0.00000 0.00000 1.00000


 LABEL AT.NO.      COORDINATES (ANGSTROM)
     1    20     0.0000     0.0000     0.0000
     2    20     2.3452     2.3451     0.0000
     3    20    -2.3452    -2.3451    -0.0000
     4    20     2.3452     0.0000     2.3451
     5    20     4.6903     2.3451     2.3451
     6    20     0.0000    -2.3451     2.3451
     7    20    -2.3452    -0.0000    -2.3451
     8    20     0.0000     2.3451    -2.3451
     9    20    -4.6903    -2.3451    -2.3451
    10    20     0.0035     2.3416     2.3416
    11    20     2.3487     4.6868     2.3417
    12    20    -2.3416    -0.0035     2.3416
    13    20     2.3487     2.3417     4.6868
    14    20     4.6939     4.6868     4.6868
    15    20     0.0035    -0.0035     4.6868
    16    20    -2.3416     2.3416    -0.0035
    17    20     0.0035     4.6868    -0.0035
    18    12    -4.6868    -0.0035    -0.0035
    19    20    -0.0035    -2.3416    -2.3416
    20    12     2.3416     0.0035    -2.3416
    21    12    -2.3487    -4.6868    -2.3417
    22    12     2.3416    -2.3416     0.0035
    23    12     4.6868     0.0035     0.0035
    24    12    -0.0035    -4.6868     0.0035
    25    12    -2.3487    -2.3417    -4.6868
    26    12    -0.0035     0.0035    -4.6868
    27    12    -4.6939    -4.6868    -4.6868
    28     8    -0.0018     0.0017    -2.3434
    29     8     2.3434     2.3469    -2.3434
    30     8    -2.3469    -2.3434    -2.3434
    31     8     2.3434     0.0017     0.0017
    32     8    -2.3469    -4.6885     0.0017
    33     8    -0.0018    -2.3434     0.0017
    34     8     4.6886     0.0018     2.3469
    35     8    -7.0373    -4.6885    -4.6885
    36     8     2.3434    -2.3434     2.3469
    37     8     0.0018     2.3434    -0.0017
    38     8     2.3469     4.6885    -0.0017
    39     8    -2.3434    -0.0017    -0.0017
    40     8     2.3469     2.3434     2.3434
    41     8     4.6921     4.6885     2.3434
    42     8     0.0018    -0.0017     2.3434
    43     8     4.6921     2.3434     4.6885
    44     8     7.0373     4.6885     4.6885
    45     8     2.3469    -0.0017     4.6885
    46     8     0.0053     4.6850     2.3399
    47     8     2.3398     0.0052    -4.6850
    48     8    -2.3505    -4.6850    -4.6850
    49     8     2.3398    -2.3399    -2.3399
    50     8     4.6850     0.0052    -2.3399
    51     8     0.0053     2.3399     4.6850
    52     8     4.6850    -2.3399     0.0052
    53     8     7.0302     0.0052     0.0052
    54     8     2.3505     2.3399     7.0302

 *****    2 SYMMOPS - TRANSLATORS IN ANGSTROM
 ***** MATRICES AND TRANSLATORS IN THE CARTESIAN REFERENCE FRAME

 ORDER   : ORDER OF THE OPERATOR

 TRANSLA : REAL TRANSLATION (WITHOUT ORIGIN SHIFT) IN CARTESIAN COORDINATES

 uvw/hkl : ORIENTATION OF THE OPERATOR IN CARTESIAN COORDINATES

 LOCATED : ORIGIN OF THE OPERATOR IN CARTESIAN COORDINATES

   NO.   1 INVERSE   1    ORDER   1        NO.   2 INVERSE   2    ORDER   2
    1.000   0.000   0.000     0.000         1.000   0.000   0.000     0.000
    0.000   1.000   0.000     0.000         0.000   0.000   1.000     0.000
    0.000   0.000   1.000     0.000         0.000   1.000   0.000     0.000
             OPERATION E(   1)                       OPERATION M(   2)
 DETERMINANT 1.; ROTATION(DEG)   0.      DETERMINANT-1.; ROTATION(DEG)   0.
 TRANSLA (  0.000    0.000    0.000)     TRANSLA (  0.000    0.000    0.000)
 uvw/hkl (  0.000    0.000    0.000)     uvw/hkl (  0.000   -1.000    1.000)
 LOCATED (  0.000    0.000    0.000)     LOCATED (  0.000    0.000    0.000)

 GEOMETRY FOR WAVE FUNCTION - DIMENSIONALITY OF THE SYSTEM    3
 (NON PERIODIC DIRECTION: LATTICE PARAMETER FORMALLY SET TO 500)
 *******************************************************************************
 LATTICE PARAMETERS (ANGSTROMS AND DEGREES) - BOHR = 0.5291772083 ANGSTROM
 PRIMITIVE CELL - CENTRING CODE 1/0 VOLUME=   694.911408 - DENSITY  3.267 g/cm^3
         A              B              C           ALPHA      BETA       GAMMA 
     9.93478161     9.94965872     9.94965872    59.999537  59.949984  59.949984
 *******************************************************************************
 ATOMS IN THE ASYMMETRIC UNIT   36 - ATOMS IN THE UNIT CELL:   54
     ATOM                 X/A                 Y/B                 Z/C    
 *******************************************************************************
      1 T  20 CA    0.000000000000E+00  0.000000000000E+00  0.000000000000E+00
      2 T  20 CA    4.567191079565E-14 -4.929364527180E-14  3.333333333333E-01
      3 T  20 CA   -4.567191079565E-14  4.929364527180E-14 -3.333333333333E-01
      4 F  20 CA    4.565792188771E-14  3.333333333333E-01 -4.923839114213E-14
      5 T  20 CA    2.023381462379E-14  3.333333333333E-01  3.333333333333E-01
      6 T  20 CA    0.000000000000E+00  3.333333333333E-01 -3.333333333333E-01
      7 F  20 CA   -4.565792188771E-14 -3.333333333333E-01  4.923839114213E-14
      8 F  20 CA    0.000000000000E+00 -3.333333333333E-01  3.333333333333E-01
      9 T  20 CA   -2.023381462379E-14 -3.333333333333E-01 -3.333333333333E-01
     10 T  20 CA    3.333333333333E-01 -3.314015728506E-14 -3.314015728506E-14
     11 T  20 CA    3.333333333332E-01 -1.126876369995E-14  3.333333333333E-01
     12 T  20 CA    3.333333333332E-01  8.720801858431E-14 -3.333333333334E-01
     13 F  20 CA    3.333333333332E-01  3.333333333333E-01 -1.132427485118E-14
     14 T  20 CA    3.333333333333E-01  3.333333333333E-01  3.333333333333E-01
     15 T  20 CA    3.333333333333E-01  3.333333333333E-01 -3.333333333334E-01
     16 F  20 CA    3.333333333332E-01 -3.333333333334E-01  8.721669220169E-14
     17 F  20 CA    3.333333333333E-01 -3.333333333334E-01  3.333333333333E-01
     18 T  12 MG    3.333333333330E-01 -3.333333333333E-01 -3.333333333333E-01
     19 T  20 CA   -3.333333333333E-01  3.314015728506E-14  3.314015728506E-14
     20 T  12 MG   -3.333333333332E-01 -8.720801858431E-14  3.333333333334E-01
     21 T  12 MG   -3.333333333332E-01  1.126876369995E-14 -3.333333333333E-01
     22 F  12 MG   -3.333333333332E-01  3.333333333334E-01 -8.721669220169E-14
     23 T  12 MG   -3.333333333330E-01  3.333333333333E-01  3.333333333333E-01
     24 T  12 MG   -3.333333333333E-01  3.333333333334E-01 -3.333333333333E-01
     25 F  12 MG   -3.333333333332E-01 -3.333333333333E-01  1.132427485118E-14
     26 F  12 MG   -3.333333333333E-01 -3.333333333333E-01  3.333333333334E-01
     27 T  12 MG   -3.333333333333E-01 -3.333333333333E-01 -3.333333333333E-01
     28 T   8 O    -1.666666666666E-01 -1.666666666667E-01  1.666666666668E-01
     29 T   8 O    -1.666666666666E-01 -1.666666666668E-01  5.000000000000E-01
     30 T   8 O    -1.666666666667E-01 -1.666666666667E-01 -1.666666666667E-01
     31 T   8 O    -1.666666666665E-01  1.666666666666E-01  1.666666666666E-01
     32 T   8 O    -1.666666666665E-01  1.666666666667E-01 -5.000000000000E-01
     33 F   8 O    -1.666666666666E-01  1.666666666668E-01 -1.666666666667E-01
     34 F   8 O    -1.666666666665E-01  5.000000000000E-01  1.666666666667E-01
     35 T   8 O    -1.666666666666E-01 -5.000000000000E-01 -5.000000000000E-01
     36 F   8 O    -1.666666666666E-01  5.000000000000E-01 -1.666666666668E-01
     37 T   8 O     1.666666666666E-01 -1.666666666668E-01  1.666666666667E-01
     38 T   8 O     1.666666666666E-01 -1.666666666667E-01  5.000000000000E-01
     39 T   8 O     1.666666666665E-01 -1.666666666666E-01 -1.666666666666E-01
     40 T   8 O     1.666666666667E-01  1.666666666667E-01  1.666666666667E-01
     41 T   8 O     1.666666666667E-01  1.666666666666E-01  5.000000000000E-01
     42 F   8 O     1.666666666666E-01  1.666666666667E-01 -1.666666666668E-01
     43 F   8 O     1.666666666667E-01  5.000000000000E-01  1.666666666666E-01
     44 T   8 O     1.666666666668E-01  5.000000000000E-01  5.000000000000E-01
     45 F   8 O     1.666666666666E-01  5.000000000000E-01 -1.666666666667E-01
     46 T   8 O     5.000000000000E-01 -1.666666666666E-01  1.666666666667E-01
     47 T   8 O    -5.000000000000E-01 -1.666666666667E-01  5.000000000000E-01
     48 T   8 O     5.000000000000E-01 -1.666666666666E-01 -1.666666666666E-01
     49 T   8 O    -5.000000000000E-01  1.666666666666E-01  1.666666666666E-01
     50 T   8 O    -5.000000000000E-01  1.666666666665E-01  5.000000000000E-01
     51 F   8 O     5.000000000000E-01  1.666666666667E-01 -1.666666666666E-01
     52 F   8 O    -5.000000000000E-01  5.000000000000E-01  1.666666666665E-01
     53 T   8 O    -5.000000000000E-01  5.000000000000E-01  5.000000000000E-01
     54 F   8 O     5.000000000000E-01  5.000000000000E-01 -1.666666666667E-01

 T = ATOM BELONGING TO THE ASYMMETRIC UNIT

 ****    2 SYMMOPS - TRANSLATORS IN FRACTIONAL UNITS
 **** MATRICES AND TRANSLATORS IN THE CRYSTALLOGRAPHIC REFERENCE FRAME
   V INV                    ROTATION MATRICES                   TRANSLATORS
   1   1  1.00  0.00  0.00  0.00  1.00  0.00  0.00  0.00  1.00  0.00  0.00  0.00
   2   2  1.00  0.00  0.00 -0.00  0.00  1.00 -0.00  1.00  0.00  0.00  0.00  0.00

 DIRECT LATTICE VECTORS CARTESIAN COMPONENTS (ANGSTROM)
          X                    Y                    Z
   0.106487774414E-01   0.702494740778E+01   0.702494740778E+01
   0.703550869115E+01   0.116574030785E-04   0.703543360944E+01
   0.703550869115E+01   0.703543360944E+01   0.116574030785E-04


 CARTESIAN COORDINATES - PRIMITIVE CELL
 *******************************************************************************
 *      ATOM          X(ANGSTROM)         Y(ANGSTROM)         Z(ANGSTROM)
 *******************************************************************************
    1    20 CA    0.000000000000E+00  0.000000000000E+00  0.000000000000E+00
    2    20 CA    2.345169563716E+00  2.345144536480E+00  3.885801000268E-06
    3    20 CA   -2.345169563716E+00 -2.345144536480E+00 -3.885801000268E-06
    4    20 CA    2.345169563716E+00  3.885801000302E-06  2.345144536480E+00
    5    20 CA    4.690339127433E+00  2.345148422281E+00  2.345148422281E+00
    6    20 CA    0.000000000000E+00 -2.345140650679E+00  2.345140650679E+00
    7    20 CA   -2.345169563716E+00 -3.885801000302E-06 -2.345144536480E+00
    8    20 CA    0.000000000000E+00  2.345140650679E+00 -2.345140650679E+00
    9    20 CA   -4.690339127433E+00 -2.345148422281E+00 -2.345148422281E+00
   10    20 CA    3.549592480000E-03  2.341649135926E+00  2.341649135926E+00
   11    20 CA    2.348719156197E+00  4.686793672406E+00  2.341653021727E+00
   12    20 CA   -2.341619971236E+00 -3.495400555000E-03  2.341645250125E+00
   13    20 CA    2.348719156197E+00  2.341653021727E+00  4.686793672406E+00
   14    20 CA    4.693888719913E+00  4.686797558207E+00  4.686797558207E+00
   15    20 CA    3.549592480000E-03 -3.491514752999E-03  4.686789786605E+00
   16    20 CA   -2.341619971236E+00  2.341645250125E+00 -3.495400555000E-03
   17    20 CA    3.549592480000E-03  4.686789786605E+00 -3.491514753000E-03
   18    12 MG   -4.686789534952E+00 -3.499286356001E-03 -3.499286356000E-03
   19    20 CA   -3.549592480000E-03 -2.341649135926E+00 -2.341649135926E+00
   20    12 MG    2.341619971236E+00  3.495400555000E-03 -2.341645250125E+00
   21    12 MG   -2.348719156197E+00 -4.686793672406E+00 -2.341653021727E+00
   22    12 MG    2.341619971236E+00 -2.341645250125E+00  3.495400555000E-03
   23    12 MG    4.686789534952E+00  3.499286356001E-03  3.499286356000E-03
   24    12 MG   -3.549592480000E-03 -4.686789786605E+00  3.491514752999E-03
   25    12 MG   -2.348719156197E+00 -2.341653021727E+00 -4.686793672406E+00
   26    12 MG   -3.549592480000E-03  3.491514753000E-03 -4.686789786605E+00
   27    12 MG   -4.693888719913E+00 -4.686797558207E+00 -4.686797558207E+00
   28     8 O    -1.774796240000E-03  1.745757377000E-03 -2.343394893303E+00
   29     8 O     2.343394767476E+00  2.346890293857E+00 -2.343391007502E+00
   30     8 O    -2.346944359957E+00 -2.343398779104E+00 -2.343398779104E+00
   31     8 O     2.343394767476E+00  1.749643178000E-03  1.749643178000E-03
   32     8 O    -2.346944359957E+00 -4.688539429782E+00  1.741871575922E-03
   33     8 O    -1.774796240001E-03 -2.343394893303E+00  1.745757377000E-03
   34     8 O     4.688564331193E+00  1.753528979001E-03  2.346894179658E+00
   35     8 O    -7.037283487390E+00 -4.688547201384E+00 -4.688547201384E+00
   36     8 O     2.343394767476E+00 -2.343391007502E+00  2.346890293857E+00
   37     8 O     1.774796240000E-03  2.343394893303E+00 -1.745757377000E-03
   38     8 O     2.346944359956E+00  4.688539429782E+00 -1.741871576000E-03
   39     8 O    -2.343394767476E+00 -1.749643178000E-03 -1.749643178000E-03
   40     8 O     2.346944359957E+00  2.343398779104E+00  2.343398779104E+00
   41     8 O     4.692113923673E+00  4.688543315584E+00  2.343402664905E+00
   42     8 O     1.774796240000E-03 -1.745757377000E-03  2.343394893303E+00
   43     8 O     4.692113923673E+00  2.343402664905E+00  4.688543315584E+00
   44     8 O     7.037283487390E+00  4.688547201386E+00  4.688547201386E+00
   45     8 O     2.346944359956E+00 -1.741871575999E-03  4.688539429782E+00
   46     8 O     5.324388721399E-03  4.685044029230E+00  2.339903378551E+00
   47     8 O     2.339845174995E+00  5.241157929487E-03 -4.685040143429E+00
   48     8 O    -2.350493952437E+00 -4.685047915030E+00 -4.685047915030E+00
   49     8 O     2.339845174996E+00 -2.339899492750E+00 -2.339899492750E+00
   50     8 O     4.685014738712E+00  5.245043730511E-03 -2.339895606949E+00
   51     8 O     5.324388721398E-03  2.339903378551E+00  4.685044029230E+00
   52     8 O     4.685014738712E+00 -2.339895606949E+00  5.245043730512E-03
   53     8 O     7.030184302429E+00  5.248929531538E-03  5.248929531539E-03
   54     8 O     2.350493952437E+00  2.339907264351E+00  7.030188565709E+00


 *********************************************************************
 * ***************************************************************** *
 * *                                                               * *
 * *       TREATMENT OF DISORDERED SYSTEMS / SOLID SOLUTIONS       * *
 * *                   USING GROUP ACTION THEORY                   * *
 * *                                                               * *
 * *  1. INTERACTION LIST (OPTIONAL)                               * *
 * *  2. CONFIGURATION ANALYSIS                                    * *
 * *                                                               * *
 * *  S. Mustapha, Ph. D'Arco, M. De La Pierre, Y. Noel,           * *
 * *  M. Ferrabone, R. Dovesi,                                     * *
 * *  On the use of symmetry in configurational analysis for the   * *
 * *  simulation of disordered solids                              * *
 * *  J. Phys.: Condens. Matter 25, 105401 (2013)                  * *
 * *                                                               * *
 * ***************************************************************** *
 *********************************************************************


 GCALCO - MAX INDICES DIRECT LATTICE VECTOR    14    14    14
 NO.OF VECTORS CREATED 6999 STARS 1817 RMAX   105.27502 BOHR

 ===============================================================================
                             CONFIGURATION ANALYSIS

  NUMBER OF SUBSTITUTING SPECIES :         2

  TOTAL NUMBER OF ACTIVE SITES :           2
  NUMBER OF SYMMETRY IRREDUCIBLE
  ACTIVE SITES :                           1
  LABELS OF SYMMETRY IRREDUCIBLE
  ACTIVE SITES IN UNIT CELL :             12

  TOTAL NUMBER OF SYMMETRY INDEPENDENT
  CLASSES (POLYA'S THEOREM) :              3
  NUMBER OF COMPOSITIONS :                 3
  COMPOSITION   N. OF CA ATOMS   N. OF CLASSES
       100.00                2               1
        50.00                1               1
         0.00                0               1
  COMPOSITIONS 100.00 AND 0.00 CORRESPOND TO PURE COMPOUNDS AND ARE ALSO CALLED
  END MEMBERS
 ===============================================================================
 COMPOSITION  2 CA OVER  2       N. OF CLASSES :            1
 ===============================================================================
  CLASS :            1     MULTIPLICITY :   1     N. OF SYMM. OP. :   2
  CA  12  16
  ----------                                                                    
  XX 
 ===============================================================================
 INFORMATION **** CONFCOUNT **** CALCULATION COMPLETE
 TTTTTTTTTTTTTTTTTTTTTTTTTTTTTT END         TELAPSE        0.02 TCPU        0.01
 EEEEEEEEEE TERMINATION  DATE 20 02 2023 TIME 14:58:09.2
Mon 20 Feb 2023 14:58:09 GMT
Contents of temporary directory:
total 16
-rw-r--r--  1 brunocamino  admin  4271 20 Feb 14:58 fort.34
SCF abnormal end - no wf written in fort.9
geometry input file fort.34 saved as /Users/brunocamino/Desktop/Imperial/cmsg_icl/solid-solutions/data/crystal/lts/CaMgO_cell_1.gui
temporary directory /Users/brunocamino/crystal/tmp removed
