date Fri 10 Mar 2023 10:19:03 GMT
hostname MacBook-Pro-8
system Darwin MacBook-Pro-8 21.6.0 Darwin Kernel Version 21.6.0: Mon Aug 22 20:20:05 PDT 2022; root:xnu-8020.140.49~2/RELEASE_ARM64_T8101 arm64
user brunocamino
output data in /Users/brunocamino/Desktop/Imperial/cmsg_icl/solid-solutions/./data/crystal/testgeom/CaMgO_testgeom_2153.out
crystal executable in /Users/brunocamino/crystal
input data in /Users/brunocamino/Desktop/Imperial/cmsg_icl/solid-solutions/./data/crystal/testgeom/CaMgO_testgeom_2153.d12
temporary directory /Users/brunocamino/crystal/tmp
external geometry input from /Users/brunocamino/Desktop/Imperial/cmsg_icl/solid-solutions/./data/crystal/testgeom/CaMgO_testgeom_2153.gui
external geometry input saved in /Users/brunocamino/Desktop/Imperial/cmsg_icl/solid-solutions/./data/crystal/testgeom/CaMgO_testgeom_2153_inp.gui
Bulk 
EXTERNAL
EXTPRT
TESTGEOM
END

         
 *******************************************************************************
 *                                                                             *
 *                               CRYSTAL17                                     *
 *                      public : 1.0.1 - Feb 1st, 2017                         *
 *                       HTTP://WWW.CRYSTAL.UNITO.IT                           *
 *                                                                             *
 *                              MAIN AUTHORS                                   *
 *                                                                             *
 *  R. DOVESI(1,11), V.R. SAUNDERS(2), C. ROETTI(1,11), R. ORLANDO(1,11),      *
 *  C.M. ZICOVICH-WILSON(1,3), F. PASCALE(4), B. CIVALLERI(1,11),              *
 *  K. DOLL(5), N.M. HARRISON(2,6), I.J. BUSH(7), Ph. D'ARCO(8),               *
 *  M. LLUNELL(9), M. CAUSA'(10), Y. NOEL(8), L. MASCHIO(1,11), A. ERBA(1,11)  *
 *  M. RE'RAT(14), S. CASASSA(1,11)                                            *
 *                                                                             *
 *        CONTRIBUTIONS TO THE CODE HAVE ALSO BEEN GIVEN BY                    *
 *                                                                             *
 *  M. FERRABONE(1,11), M. DE LA PIERRE(1,11), M. FERRERO(1,11),               *
 *  J. BAIMA(1,11), E. ALBANESE(1,11), M.F. PEINTINGER(12), R. BAST(13),       *
 *  B. KIRTMAN(15), V. LACIVITA(1,11), R. DEMICHELIS(1,16)                     *
 *  G. BRANDEBURG(17), S. SALUSTRO(1,11), G. SANSONE(1,11)                     *
 *  M.T. RUGGIERO(18)                                                          *
 *                                                                             *
 * (1) THEORETICAL CHEMISTRY GROUP - UNIVERSITA' DI TORINO - TORINO (ITALY)    *

 * (2) COMPUTATIONAL SCIENCE & ENGINEERING DEPARTMENT - STFC DARESBURY (UK)    *
 * (3) UNIVERSIDAD AUTONOMA DEL ESTADO DE MORELOS - CUERNAVACA (MEXICO)        *
 * (4) UNIVERSITE' DE LORRAINE - NANCY (FRANCE)                                *
 * (5) UNIVERSITAET STUTTGART- STUTTGART (GERMANY)                             *
 * (6) IMPERIAL COLLEGE - LONDON (UK)                                          *
 * (7) OXFORD E-RESEARCH CENTRE - OXFORD (UK)                                  *
 * (8) UPMC - SORBONNE UNIVERSITES - PARIS (FRANCE)                            *
 * (9) UNIVERSIDAD DE BARCELONA - BARCELONA (SPAIN)                            *
 *(10) UNIVERSITA' DI NAPOLI "FEDERICO II" - NAPOLI (ITALY)                    *
 *(11) NIS - NANOSTRUCTURED INTERFACES AND SURFACES - TORINO (ITALY)           *
 *(12) MPI FUER CHEMISCHE ENERGIEKONVERSION - MUELHEIM AN DER RUHR (GERMANY)   *
 *(13) UNIVERSITY OF TROMSO - TROMSO (NORWAY)                                  *
 *(14) UNIVERSITE' DE PAU ET DES PAYS DE L'ADOUR - PAU (FRANCE)                *
 *(15) UNIVERSITY OF CALIFORNIA SANTA BARBARA - SANTA BARBARA (USA)            *
 *(16) CURTIN UNIVERSITY - PERTH (AUSTRALIA)                                   *
 *(17) UNIVERSITY COLLEGE LONDON - LONDON (UK)                                 *
 *(18) CAMBRIDGE UNIVERSITY - CAMBRIDGE (UK)                                   *
 *                                                                             *
 *******************************************************************************
 EEEEEEEEEE STARTING  DATE 10 03 2023 TIME 10:19:03.3
 Bulk                                                                            

 GEOMETRY INPUT FROM EXTERNAL FILE (FORTRAN UNIT 34)
 3D - CRYSTAL 

 *******************************************************************************
 LATTICE PARAMETERS  (ANGSTROMS AND DEGREES) - PRIMITIVE CELL
       A          B          C        ALPHA      BETA     GAMMA        VOLUME
   10.26331   10.26331   10.26331    60.00000  60.00000  60.00000    764.447596
 INFORMATION **** CHKGRP **** SPGR WITH NO INVERSION

 NUMBER OF IRREDUCIBLE ATOMS IN THE CELL:   54

 CARTESIAN COORDINATES (ANGSTROM) - IRREDUCIBLE ATOMS AND SYMMETRY RELATED

 AT.IRR.  AT  AT.N.          X                   Y                   Z
     1     1    20    0.000000000000E+00  0.000000000000E+00  0.000000000000E+00
     2     2    20    2.419086065000E+00  2.419086065000E+00  0.000000000000E+00
     3     3    20   -2.419086065000E+00 -2.419086065000E+00  0.000000000000E+00
     4     4    20    2.419086065000E+00  0.000000000000E+00  2.419086065000E+00
     5     5    20    4.838172130000E+00  2.419086065000E+00  2.419086065000E+00
     6     6    20    0.000000000000E+00 -2.419086065000E+00  2.419086065000E+00
     7     7    20   -2.419086065000E+00  0.000000000000E+00 -2.419086065000E+00
     8     8    20    0.000000000000E+00  2.419086065000E+00 -2.419086065000E+00
     9     9    12   -4.838172130000E+00 -2.419086065000E+00 -2.419086065000E+00
    10    10    20    0.000000000000E+00  2.419086065000E+00  2.419086065000E+00
    11    11    20    2.419086065000E+00  4.838172130000E+00  2.419086065000E+00
    12    12    12   -2.419086065000E+00  0.000000000000E+00  2.419086065000E+00
    13    13    20    2.419086065000E+00  2.419086065000E+00  4.838172130000E+00
    14    14    20    4.838172130000E+00  4.838172130000E+00  4.838172130000E+00
    15    15    20    0.000000000000E+00  0.000000000000E+00  4.838172130000E+00
    16    16    12   -2.419086065000E+00  2.419086065000E+00  0.000000000000E+00
    17    17    12    0.000000000000E+00  4.838172130000E+00  0.000000000000E+00
    18    18    20   -4.838172130000E+00  0.000000000000E+00  0.000000000000E+00
    19    19    20    0.000000000000E+00 -2.419086065000E+00 -2.419086065000E+00
    20    20    12    2.419086065000E+00  0.000000000000E+00 -2.419086065000E+00
    21    21    12   -2.419086065000E+00 -4.838172130000E+00 -2.419086065000E+00
    22    22    12    2.419086065000E+00 -2.419086065000E+00  0.000000000000E+00
    23    23    12    4.838172130000E+00  0.000000000000E+00  0.000000000000E+00
    24    24    20    0.000000000000E+00 -4.838172130000E+00  0.000000000000E+00
    25    25    20   -2.419086065000E+00 -2.419086065000E+00 -4.838172130000E+00
    26    26    12    0.000000000000E+00  0.000000000000E+00 -4.838172130000E+00
    27    27    20   -4.838172130000E+00 -4.838172130000E+00 -4.838172130000E+00
    28    28     8    2.419086065000E+00  2.419086065000E+00  2.419086065000E+00
    29    29     8   -2.419086065000E+00 -2.419086065000E+00  2.419086065000E+00
    30    30     8    0.000000000000E+00  0.000000000000E+00  2.419086065000E+00
    31    31     8   -2.419086065000E+00  2.419086065000E+00 -2.419086065000E+00
    32    32     8   -7.257258195000E+00 -2.419086065000E+00 -2.419086065000E+00
    33    33     8   -4.838172130000E+00  0.000000000000E+00 -2.419086065000E+00
    34    34     8    0.000000000000E+00  2.419086065000E+00  0.000000000000E+00
    35    35     8    2.419086065000E+00  4.838172130000E+00  0.000000000000E+00
    36    36     8   -2.419086065000E+00  0.000000000000E+00  0.000000000000E+00
    37    37     8    2.419086065000E+00 -2.419086065000E+00 -2.419086065000E+00
    38    38     8   -2.419086065000E+00 -7.257258195000E+00 -2.419086065000E+00
    39    39     8    0.000000000000E+00 -4.838172130000E+00 -2.419086065000E+00
    40    40     8   -2.419086065000E+00 -2.419086065000E+00 -7.257258195000E+00
    41    41     8   -7.257258195000E+00 -7.257258195000E+00 -7.257258195000E+00
    42    42     8   -4.838172130000E+00 -4.838172130000E+00 -7.257258195000E+00
    43    43     8    0.000000000000E+00 -2.419086065000E+00 -4.838172130000E+00
    44    44     8   -4.838172130000E+00 -7.257258195000E+00 -4.838172130000E+00
    45    45     8   -2.419086065000E+00 -4.838172130000E+00 -4.838172130000E+00
    46    46     8    2.419086065000E+00  0.000000000000E+00  0.000000000000E+00
    47    47     8    4.838172130000E+00  2.419086065000E+00  0.000000000000E+00
    48    48     8    0.000000000000E+00 -2.419086065000E+00  0.000000000000E+00
    49    49     8   -2.419086065000E+00  0.000000000000E+00 -4.838172130000E+00
    50    50     8   -7.257258195000E+00 -4.838172130000E+00 -4.838172130000E+00
    51    51     8   -4.838172130000E+00 -2.419086065000E+00 -4.838172130000E+00
    52    52     8    0.000000000000E+00  0.000000000000E+00 -2.419086065000E+00
    53    53     8   -4.838172130000E+00 -4.838172130000E+00 -2.419086065000E+00
    54    54     8   -2.419086065000E+00 -2.419086065000E+00 -2.419086065000E+00

 SPACE  GROUP  N.                     :    1
 NUMBER OF SYMMETRY OPERATORS         :    1
 *******************************************************************************
 LATTICE PARAMETERS (ANGSTROMS AND DEGREES) - BOHR = 0.5291772083 ANGSTROM
 PRIMITIVE CELL - CENTRING CODE 1/0 VOLUME=   764.447596 - DENSITY  2.970 g/cm^3
         A              B              C           ALPHA      BETA       GAMMA 
    10.26331297    10.26331297    10.26331297    60.000000  60.000000  60.000000
 *******************************************************************************
 ATOMS IN THE ASYMMETRIC UNIT   54 - ATOMS IN THE UNIT CELL:   54
     ATOM                 X/A                 Y/B                 Z/C    
 *******************************************************************************
      1 T  20 CA    0.000000000000E+00  0.000000000000E+00  0.000000000000E+00
      2 T  20 CA    0.000000000000E+00  0.000000000000E+00  3.333333333333E-01
      3 T  20 CA    0.000000000000E+00  0.000000000000E+00 -3.333333333333E-01
      4 T  20 CA    0.000000000000E+00  3.333333333333E-01  0.000000000000E+00
      5 T  20 CA    0.000000000000E+00  3.333333333333E-01  3.333333333333E-01
      6 T  20 CA    0.000000000000E+00  3.333333333333E-01 -3.333333333333E-01
      7 T  20 CA    0.000000000000E+00 -3.333333333333E-01  0.000000000000E+00
      8 T  20 CA    0.000000000000E+00 -3.333333333333E-01  3.333333333333E-01
      9 T  12 MG    0.000000000000E+00 -3.333333333333E-01 -3.333333333333E-01
     10 T  20 CA    3.333333333333E-01  0.000000000000E+00  0.000000000000E+00
     11 T  20 CA    3.333333333333E-01  0.000000000000E+00  3.333333333333E-01
     12 T  12 MG    3.333333333333E-01  0.000000000000E+00 -3.333333333333E-01
     13 T  20 CA    3.333333333333E-01  3.333333333333E-01  0.000000000000E+00
     14 T  20 CA    3.333333333333E-01  3.333333333333E-01  3.333333333333E-01
     15 T  20 CA    3.333333333333E-01  3.333333333333E-01 -3.333333333333E-01
     16 T  12 MG    3.333333333333E-01 -3.333333333333E-01  0.000000000000E+00
     17 T  12 MG    3.333333333333E-01 -3.333333333333E-01  3.333333333333E-01
     18 T  20 CA    3.333333333333E-01 -3.333333333333E-01 -3.333333333333E-01
     19 T  20 CA   -3.333333333333E-01  0.000000000000E+00  0.000000000000E+00
     20 T  12 MG   -3.333333333333E-01  0.000000000000E+00  3.333333333333E-01
     21 T  12 MG   -3.333333333333E-01  0.000000000000E+00 -3.333333333333E-01
     22 T  12 MG   -3.333333333333E-01  3.333333333333E-01  0.000000000000E+00
     23 T  12 MG   -3.333333333333E-01  3.333333333333E-01  3.333333333333E-01
     24 T  20 CA   -3.333333333333E-01  3.333333333333E-01 -3.333333333333E-01
     25 T  20 CA   -3.333333333333E-01 -3.333333333333E-01  0.000000000000E+00
     26 T  12 MG   -3.333333333333E-01 -3.333333333333E-01  3.333333333333E-01
     27 T  20 CA   -3.333333333333E-01 -3.333333333333E-01 -3.333333333333E-01
     28 T   8 O     1.666666666667E-01  1.666666666667E-01  1.666666666667E-01
     29 T   8 O     1.666666666667E-01  1.666666666667E-01  5.000000000000E-01
     30 T   8 O     1.666666666667E-01  1.666666666667E-01 -1.666666666667E-01
     31 T   8 O     1.666666666667E-01  5.000000000000E-01  1.666666666667E-01
     32 T   8 O     1.666666666667E-01  5.000000000000E-01  5.000000000000E-01
     33 T   8 O     1.666666666667E-01  5.000000000000E-01 -1.666666666667E-01
     34 T   8 O     1.666666666667E-01 -1.666666666667E-01  1.666666666667E-01
     35 T   8 O     1.666666666667E-01 -1.666666666667E-01 -5.000000000000E-01
     36 T   8 O     1.666666666667E-01 -1.666666666667E-01 -1.666666666667E-01
     37 T   8 O     5.000000000000E-01  1.666666666667E-01  1.666666666667E-01
     38 T   8 O     5.000000000000E-01  1.666666666667E-01  5.000000000000E-01
     39 T   8 O     5.000000000000E-01  1.666666666667E-01 -1.666666666667E-01
     40 T   8 O     5.000000000000E-01  5.000000000000E-01  1.666666666667E-01
     41 T   8 O     5.000000000000E-01  5.000000000000E-01  5.000000000000E-01
     42 T   8 O     5.000000000000E-01  5.000000000000E-01 -1.666666666667E-01
     43 T   8 O     5.000000000000E-01 -1.666666666667E-01  1.666666666667E-01
     44 T   8 O     5.000000000000E-01 -1.666666666667E-01  5.000000000000E-01
     45 T   8 O     5.000000000000E-01 -1.666666666667E-01 -1.666666666667E-01
     46 T   8 O    -1.666666666667E-01  1.666666666667E-01  1.666666666667E-01
     47 T   8 O    -1.666666666667E-01  1.666666666667E-01 -5.000000000000E-01
     48 T   8 O    -1.666666666667E-01  1.666666666667E-01 -1.666666666667E-01
     49 T   8 O    -1.666666666667E-01  5.000000000000E-01  1.666666666667E-01
     50 T   8 O    -1.666666666667E-01  5.000000000000E-01  5.000000000000E-01
     51 T   8 O    -1.666666666667E-01  5.000000000000E-01 -1.666666666667E-01
     52 T   8 O    -1.666666666667E-01 -1.666666666667E-01  1.666666666667E-01
     53 T   8 O    -1.666666666667E-01 -1.666666666667E-01  5.000000000000E-01
     54 T   8 O    -1.666666666667E-01 -1.666666666667E-01 -1.666666666667E-01

 T = ATOM BELONGING TO THE ASYMMETRIC UNIT
 *******************************************************************************
 * GEOMETRY EDITING - INPUT COORDINATES ARE GIVEN IN ANGSTROM         
 *******************************************************************************

 GCALCO - MAX INDICES DIRECT LATTICE VECTOR    14    14    14
 NO.OF VECTORS CREATED 6999 STARS  105 RMAX   205.25581 BOHR

 GEOMETRY FOR WAVE FUNCTION - DIMENSIONALITY OF THE SYSTEM    3
 (NON PERIODIC DIRECTION: LATTICE PARAMETER FORMALLY SET TO 500)
 *******************************************************************************
 LATTICE PARAMETERS (ANGSTROMS AND DEGREES) - BOHR = 0.5291772083 ANGSTROM
 PRIMITIVE CELL - CENTRING CODE 1/0 VOLUME=   764.447596 - DENSITY  2.970 g/cm^3
         A              B              C           ALPHA      BETA       GAMMA 
    10.26331297    10.26331297    10.26331297    60.000000  60.000000  60.000000
 *******************************************************************************
 ATOMS IN THE ASYMMETRIC UNIT   54 - ATOMS IN THE UNIT CELL:   54
     ATOM                 X/A                 Y/B                 Z/C    
 *******************************************************************************
      1 T  20 CA    0.000000000000E+00  0.000000000000E+00  0.000000000000E+00
      2 T  20 CA    0.000000000000E+00  0.000000000000E+00  3.333333333333E-01
      3 T  20 CA    0.000000000000E+00  0.000000000000E+00 -3.333333333333E-01
      4 T  20 CA    0.000000000000E+00  3.333333333333E-01  0.000000000000E+00
      5 T  20 CA    5.551115123126E-17  3.333333333333E-01  3.333333333333E-01
      6 T  20 CA    0.000000000000E+00  3.333333333333E-01 -3.333333333333E-01
      7 T  20 CA    0.000000000000E+00 -3.333333333333E-01  0.000000000000E+00
      8 T  20 CA    0.000000000000E+00 -3.333333333333E-01  3.333333333333E-01
      9 T  12 MG   -5.551115123126E-17 -3.333333333333E-01 -3.333333333333E-01
     10 T  20 CA    3.333333333333E-01  0.000000000000E+00  0.000000000000E+00
     11 T  20 CA    3.333333333333E-01  5.551115123126E-17  3.333333333333E-01
     12 T  12 MG    3.333333333333E-01  0.000000000000E+00 -3.333333333333E-01
     13 T  20 CA    3.333333333333E-01  3.333333333333E-01  0.000000000000E+00
     14 T  20 CA    3.333333333333E-01  3.333333333333E-01  3.333333333333E-01
     15 T  20 CA    3.333333333333E-01  3.333333333333E-01 -3.333333333333E-01
     16 T  12 MG    3.333333333333E-01 -3.333333333333E-01  0.000000000000E+00
     17 T  12 MG    3.333333333333E-01 -3.333333333333E-01  3.333333333333E-01
     18 T  20 CA    3.333333333333E-01 -3.333333333333E-01 -3.333333333333E-01
     19 T  20 CA   -3.333333333333E-01  0.000000000000E+00  0.000000000000E+00
     20 T  12 MG   -3.333333333333E-01  0.000000000000E+00  3.333333333333E-01
     21 T  12 MG   -3.333333333333E-01 -5.551115123126E-17 -3.333333333333E-01
     22 T  12 MG   -3.333333333333E-01  3.333333333333E-01  0.000000000000E+00
     23 T  12 MG   -3.333333333333E-01  3.333333333333E-01  3.333333333333E-01
     24 T  20 CA   -3.333333333333E-01  3.333333333333E-01 -3.333333333333E-01
     25 T  20 CA   -3.333333333333E-01 -3.333333333333E-01  0.000000000000E+00
     26 T  12 MG   -3.333333333333E-01 -3.333333333333E-01  3.333333333333E-01
     27 T  20 CA   -3.333333333333E-01 -3.333333333333E-01 -3.333333333333E-01
     28 T   8 O     1.666666666667E-01  1.666666666667E-01  1.666666666667E-01
     29 T   8 O     1.666666666667E-01  1.666666666667E-01 -5.000000000000E-01
     30 T   8 O     1.666666666667E-01  1.666666666667E-01 -1.666666666667E-01
     31 T   8 O     1.666666666667E-01 -5.000000000000E-01  1.666666666667E-01
     32 T   8 O     1.666666666667E-01 -5.000000000000E-01  5.000000000000E-01
     33 T   8 O     1.666666666667E-01 -5.000000000000E-01 -1.666666666667E-01
     34 T   8 O     1.666666666667E-01 -1.666666666667E-01  1.666666666667E-01
     35 T   8 O     1.666666666667E-01 -1.666666666667E-01 -5.000000000000E-01
     36 T   8 O     1.666666666667E-01 -1.666666666667E-01 -1.666666666667E-01
     37 T   8 O    -5.000000000000E-01  1.666666666667E-01  1.666666666667E-01
     38 T   8 O    -5.000000000000E-01  1.666666666667E-01  5.000000000000E-01
     39 T   8 O    -5.000000000000E-01  1.666666666667E-01 -1.666666666667E-01
     40 T   8 O    -5.000000000000E-01 -5.000000000000E-01  1.666666666667E-01
     41 T   8 O    -5.000000000000E-01 -5.000000000000E-01 -5.000000000000E-01
     42 T   8 O    -5.000000000000E-01 -5.000000000000E-01 -1.666666666667E-01
     43 T   8 O    -5.000000000000E-01 -1.666666666667E-01  1.666666666667E-01
     44 T   8 O    -5.000000000000E-01 -1.666666666667E-01 -5.000000000000E-01
     45 T   8 O    -5.000000000000E-01 -1.666666666667E-01 -1.666666666667E-01
     46 T   8 O    -1.666666666667E-01  1.666666666667E-01  1.666666666667E-01
     47 T   8 O    -1.666666666667E-01  1.666666666667E-01 -5.000000000000E-01
     48 T   8 O    -1.666666666667E-01  1.666666666667E-01 -1.666666666667E-01
     49 T   8 O    -1.666666666667E-01 -5.000000000000E-01  1.666666666667E-01
     50 T   8 O    -1.666666666667E-01 -5.000000000000E-01 -5.000000000000E-01
     51 T   8 O    -1.666666666667E-01 -5.000000000000E-01 -1.666666666667E-01
     52 T   8 O    -1.666666666667E-01 -1.666666666667E-01  1.666666666667E-01
     53 T   8 O    -1.666666666667E-01 -1.666666666667E-01 -5.000000000000E-01
     54 T   8 O    -1.666666666667E-01 -1.666666666667E-01 -1.666666666667E-01

 T = ATOM BELONGING TO THE ASYMMETRIC UNIT

 ****    1 SYMMOPS - TRANSLATORS IN FRACTIONAL UNITS
 **** MATRICES AND TRANSLATORS IN THE CRYSTALLOGRAPHIC REFERENCE FRAME
   V INV                    ROTATION MATRICES                   TRANSLATORS
   1   1  1.00  0.00  0.00  0.00  1.00  0.00  0.00  0.00  1.00  0.00  0.00  0.00

 DIRECT LATTICE VECTORS CARTESIAN COMPONENTS (ANGSTROM)
          X                    Y                    Z
   0.000000000000E+00   0.725725819500E+01   0.725725819500E+01
   0.725725819500E+01   0.000000000000E+00   0.725725819500E+01
   0.725725819500E+01   0.725725819500E+01   0.000000000000E+00


 CARTESIAN COORDINATES - PRIMITIVE CELL
 *******************************************************************************
 *      ATOM          X(ANGSTROM)         Y(ANGSTROM)         Z(ANGSTROM)
 *******************************************************************************
    1    20 CA    0.000000000000E+00  0.000000000000E+00  0.000000000000E+00
    2    20 CA    2.419086065000E+00  2.419086065000E+00  0.000000000000E+00
    3    20 CA   -2.419086065000E+00 -2.419086065000E+00  0.000000000000E+00
    4    20 CA    2.419086065000E+00  0.000000000000E+00  2.419086065000E+00
    5    20 CA    4.838172130000E+00  2.419086065000E+00  2.419086065000E+00
    6    20 CA    0.000000000000E+00 -2.419086065000E+00  2.419086065000E+00
    7    20 CA   -2.419086065000E+00  0.000000000000E+00 -2.419086065000E+00
    8    20 CA    0.000000000000E+00  2.419086065000E+00 -2.419086065000E+00
    9    12 MG   -4.838172130000E+00 -2.419086065000E+00 -2.419086065000E+00
   10    20 CA    0.000000000000E+00  2.419086065000E+00  2.419086065000E+00
   11    20 CA    2.419086065000E+00  4.838172130000E+00  2.419086065000E+00
   12    12 MG   -2.419086065000E+00  0.000000000000E+00  2.419086065000E+00
   13    20 CA    2.419086065000E+00  2.419086065000E+00  4.838172130000E+00
   14    20 CA    4.838172130000E+00  4.838172130000E+00  4.838172130000E+00
   15    20 CA    0.000000000000E+00  0.000000000000E+00  4.838172130000E+00
   16    12 MG   -2.419086065000E+00  2.419086065000E+00  0.000000000000E+00
   17    12 MG    0.000000000000E+00  4.838172130000E+00  0.000000000000E+00
   18    20 CA   -4.838172130000E+00  0.000000000000E+00  0.000000000000E+00
   19    20 CA    0.000000000000E+00 -2.419086065000E+00 -2.419086065000E+00
   20    12 MG    2.419086065000E+00  0.000000000000E+00 -2.419086065000E+00
   21    12 MG   -2.419086065000E+00 -4.838172130000E+00 -2.419086065000E+00
   22    12 MG    2.419086065000E+00 -2.419086065000E+00  0.000000000000E+00
   23    12 MG    4.838172130000E+00  0.000000000000E+00  0.000000000000E+00
   24    20 CA    0.000000000000E+00 -4.838172130000E+00  0.000000000000E+00
   25    20 CA   -2.419086065000E+00 -2.419086065000E+00 -4.838172130000E+00
   26    12 MG    0.000000000000E+00  0.000000000000E+00 -4.838172130000E+00
   27    20 CA   -4.838172130000E+00 -4.838172130000E+00 -4.838172130000E+00
   28     8 O     2.419086065000E+00  2.419086065000E+00  2.419086065000E+00
   29     8 O     4.838172130000E+00  4.838172130000E+00  2.419086065000E+00
   30     8 O     0.000000000000E+00  0.000000000000E+00  2.419086065000E+00
   31     8 O     4.838172130000E+00  2.419086065000E+00  4.838172130000E+00
   32     8 O     7.257258195000E+00  4.838172130000E+00  4.838172130000E+00
   33     8 O     2.419086065000E+00  0.000000000000E+00  4.838172130000E+00
   34     8 O     0.000000000000E+00  2.419086065000E+00  0.000000000000E+00
   35     8 O     2.419086065000E+00  4.838172130000E+00  0.000000000000E+00
   36     8 O    -2.419086065000E+00  0.000000000000E+00  0.000000000000E+00
   37     8 O     2.419086065000E+00  4.838172130000E+00  4.838172130000E+00
   38     8 O     4.838172130000E+00  7.257258195000E+00  4.838172130000E+00
   39     8 O     0.000000000000E+00  2.419086065000E+00  4.838172130000E+00
   40     8 O     4.838172130000E+00  4.838172130000E+00  7.257258195000E+00
   41     8 O     7.257258195000E+00  7.257258195000E+00  7.257258195000E+00
   42     8 O     2.419086065000E+00  2.419086065000E+00  7.257258195000E+00
   43     8 O     0.000000000000E+00  4.838172130000E+00  2.419086065000E+00
   44     8 O     2.419086065000E+00  7.257258195000E+00  2.419086065000E+00
   45     8 O    -2.419086065000E+00  2.419086065000E+00  2.419086065000E+00
   46     8 O     2.419086065000E+00  0.000000000000E+00  0.000000000000E+00
   47     8 O     4.838172130000E+00  2.419086065000E+00  0.000000000000E+00
   48     8 O     0.000000000000E+00 -2.419086065000E+00  0.000000000000E+00
   49     8 O     4.838172130000E+00  0.000000000000E+00  2.419086065000E+00
   50     8 O     7.257258195000E+00  2.419086065000E+00  2.419086065000E+00
   51     8 O     2.419086065000E+00 -2.419086065000E+00  2.419086065000E+00
   52     8 O     0.000000000000E+00  0.000000000000E+00 -2.419086065000E+00
   53     8 O     2.419086065000E+00  2.419086065000E+00 -2.419086065000E+00
   54     8 O    -2.419086065000E+00 -2.419086065000E+00 -2.419086065000E+00
 WARNING **** CRYSTA **** TESTGEOM  DIRECTIVE - GEOMETRY EDITING COMPLETE
 TTTTTTTTTTTTTTTTTTTTTTTTTTTTTT END         TELAPSE        0.01 TCPU        0.01
 EEEEEEEEEE TERMINATION  DATE 10 03 2023 TIME 10:19:03.3
Fri 10 Mar 2023 10:19:03 GMT
Contents of temporary directory:
total 8
-rw-r--r--  1 brunocamino  admin  4027 10 Mar 10:19 fort.34
SCF abnormal end - no wf written in fort.9
geometry input file fort.34 saved as /Users/brunocamino/Desktop/Imperial/cmsg_icl/solid-solutions/./data/crystal/testgeom/CaMgO_testgeom_2153.gui
temporary directory /Users/brunocamino/crystal/tmp removed
